LAMMPS data file. CGCMM style. atom_style full generated by VMD/TopoTools v1.7 on Thu Feb 16 19:16:37 IST 2023
 4500 atoms
 3000 bonds
 1500 angles
 0 dihedrals
 0 impropers
 2 atom types
 1 bond types
 1 angle types
 0 dihedral types
 0 improper types
  -0.0130 35.5850  xlo xhi
  -0.0210 35.5850  ylo yhi
  -0.0460 35.5780  zlo zhi

# Pair Coeffs
#
# 1  1OT
# 2  2HT

# Bond Coeffs
#
# 1  1OT-2HT

# Angle Coeffs
#
# 1  2HT-1OT-2HT

 Masses

 1 15.999400 # 1OT
 2 1.007940 # 2HT

 Atoms # full

1 1 1 -1.048400 27.513000 15.711000 7.227000 # 1OT TIP4
2 1 2 0.524200 27.117001 14.781000 6.847000 # 2HT TIP4
3 1 2 0.524200 27.059000 15.933000 8.181000 # 2HT TIP4
4 2 1 -1.048400 11.292000 17.475000 14.384000 # 1OT TIP4
5 2 2 0.524200 10.623000 17.594999 13.545000 # 2HT TIP4
6 2 2 0.524200 10.995000 18.142000 15.179000 # 2HT TIP4
7 3 1 -1.048400 18.025000 0.001000 15.500000 # 1OT TIP4
8 3 2 0.524200 17.350000 0.834000 15.636000 # 2HT TIP4
9 3 2 0.524200 18.421000 0.019000 14.496000 # 2HT TIP4
10 4 1 -1.048400 28.167000 6.257000 16.635000 # 1OT TIP4
11 4 2 0.524200 29.148001 6.246000 16.184000 # 2HT TIP4
12 4 2 0.524200 27.421000 6.066000 15.879000 # 2HT TIP4
13 5 1 -1.048400 24.889999 10.885000 34.855000 # 1OT TIP4
14 5 2 0.524200 24.972000 10.270000 33.971001 # 2HT TIP4
15 5 2 0.524200 25.743999 10.714000 35.493000 # 2HT TIP4
16 6 1 -1.048400 10.983000 33.255001 1.164000 # 1OT TIP4
17 6 2 0.524200 11.262000 33.749001 2.083000 # 2HT TIP4
18 6 2 0.524200 10.901000 32.193001 1.337000 # 2HT TIP4
19 7 1 -1.048400 18.033001 31.864000 10.109000 # 1OT TIP4
20 7 2 0.524200 18.371000 31.325001 9.236000 # 2HT TIP4
21 7 2 0.524200 17.586000 32.799000 9.805000 # 2HT TIP4
22 8 1 -1.048400 34.875999 25.069000 26.249001 # 1OT TIP4
23 8 2 0.524200 34.000000 24.506001 25.961000 # 2HT TIP4
24 8 2 0.524200 35.568001 25.107000 25.421000 # 2HT TIP4
25 9 1 -1.048400 21.250000 18.468000 34.958000 # 1OT TIP4
26 9 2 0.524200 20.912001 18.433001 33.931999 # 2HT TIP4
27 9 2 0.524200 20.620001 17.837000 35.566002 # 2HT TIP4
28 10 1 -1.048400 32.631001 33.154999 32.293999 # 1OT TIP4
29 10 2 0.524200 32.831001 34.202000 32.118000 # 2HT TIP4
30 10 2 0.524200 33.537998 32.662998 32.610001 # 2HT TIP4
31 11 1 -1.048400 3.614000 14.864000 15.671000 # 1OT TIP4
32 11 2 0.524200 3.144000 14.742000 14.706000 # 2HT TIP4
33 11 2 0.524200 4.508000 14.261000 15.715000 # 2HT TIP4
34 12 1 -1.048400 10.924000 16.362000 0.614000 # 1OT TIP4
35 12 2 0.524200 11.953000 16.257000 0.303000 # 2HT TIP4
36 12 2 0.524200 10.864000 16.284000 1.689000 # 2HT TIP4
37 13 1 -1.048400 12.922000 25.115000 4.810000 # 1OT TIP4
38 13 2 0.524200 13.223000 25.357000 5.819000 # 2HT TIP4
39 13 2 0.524200 13.465000 24.245001 4.471000 # 2HT TIP4
40 14 1 -1.048400 32.301998 23.028999 13.068000 # 1OT TIP4
41 14 2 0.524200 31.799999 22.482000 12.283000 # 2HT TIP4
42 14 2 0.524200 31.777000 23.952999 13.255000 # 2HT TIP4
43 15 1 -1.048400 11.345000 26.142000 34.869999 # 1OT TIP4
44 15 2 0.524200 12.395000 25.909000 34.958000 # 2HT TIP4
45 15 2 0.524200 10.782000 25.539000 35.566002 # 2HT TIP4
46 16 1 -1.048400 7.700000 4.726000 28.334999 # 1OT TIP4
47 16 2 0.524200 7.780000 3.969000 27.569000 # 2HT TIP4
48 16 2 0.524200 6.749000 4.630000 28.837999 # 2HT TIP4
49 17 1 -1.048400 23.980000 8.158000 15.081000 # 1OT TIP4
50 17 2 0.524200 24.268000 9.174000 15.308000 # 2HT TIP4
51 17 2 0.524200 23.075001 7.912000 15.618000 # 2HT TIP4
52 18 1 -1.048400 11.897000 8.152000 26.943001 # 1OT TIP4
53 18 2 0.524200 11.588000 7.214000 27.379999 # 2HT TIP4
54 18 2 0.524200 11.066000 8.593000 26.413000 # 2HT TIP4
55 19 1 -1.048400 33.769001 19.889999 14.315000 # 1OT TIP4
56 19 2 0.524200 33.091000 20.511000 13.748000 # 2HT TIP4
57 19 2 0.524200 33.880001 20.294001 15.310000 # 2HT TIP4
58 20 1 -1.048400 31.841999 30.620001 31.813000 # 1OT TIP4
59 20 2 0.524200 31.237000 31.462000 32.115002 # 2HT TIP4
60 20 2 0.524200 32.778000 30.976000 31.409000 # 2HT TIP4
61 21 1 -1.048400 18.938000 18.063000 26.844000 # 1OT TIP4
62 21 2 0.524200 19.934999 17.740000 27.105000 # 2HT TIP4
63 21 2 0.524200 18.219000 17.350000 27.218000 # 2HT TIP4
64 22 1 -1.048400 1.119000 21.174000 23.089001 # 1OT TIP4
65 22 2 0.524200 1.669000 21.030001 24.007000 # 2HT TIP4
66 22 2 0.524200 1.811000 21.268000 22.264999 # 2HT TIP4
67 23 1 -1.048400 23.382000 3.092000 4.324000 # 1OT TIP4
68 23 2 0.524200 24.437000 2.931000 4.489000 # 2HT TIP4
69 23 2 0.524200 23.181999 3.108000 3.263000 # 2HT TIP4
70 24 1 -1.048400 8.972000 35.493999 26.018000 # 1OT TIP4
71 24 2 0.524200 8.205000 35.175999 25.327000 # 2HT TIP4
72 24 2 0.524200 8.553000 35.570999 27.010000 # 2HT TIP4
73 25 1 -1.048400 2.432000 0.499000 5.248000 # 1OT TIP4
74 25 2 0.524200 1.387000 0.740000 5.377000 # 2HT TIP4
75 25 2 0.524200 2.914000 0.459000 6.213000 # 2HT TIP4
76 26 1 -1.048400 20.716000 24.676001 16.792999 # 1OT TIP4
77 26 2 0.524200 21.388000 24.930000 15.987000 # 2HT TIP4
78 26 2 0.524200 20.045000 25.502001 16.976000 # 2HT TIP4
79 27 1 -1.048400 0.139000 32.997002 31.141001 # 1OT TIP4
80 27 2 0.524200 -0.001000 31.929001 31.062000 # 2HT TIP4
81 27 2 0.524200 0.443000 33.393002 30.183001 # 2HT TIP4
82 28 1 -1.048400 22.864000 13.706000 30.165001 # 1OT TIP4
83 28 2 0.524200 22.816999 14.771000 29.990000 # 2HT TIP4
84 28 2 0.524200 22.443001 13.183000 29.320000 # 2HT TIP4
85 29 1 -1.048400 8.759000 31.820000 11.839000 # 1OT TIP4
86 29 2 0.524200 8.132000 30.952999 11.695000 # 2HT TIP4
87 29 2 0.524200 8.967000 31.944000 12.891000 # 2HT TIP4
88 30 1 -1.048400 14.115000 32.669998 1.293000 # 1OT TIP4
89 30 2 0.524200 13.303000 33.356998 1.105000 # 2HT TIP4
90 30 2 0.524200 14.626000 32.453999 0.367000 # 2HT TIP4
91 31 1 -1.048400 0.690000 2.741000 17.216000 # 1OT TIP4
92 31 2 0.524200 1.515000 2.516000 17.875999 # 2HT TIP4
93 31 2 0.524200 0.280000 3.707000 17.469000 # 2HT TIP4
94 32 1 -1.048400 8.627000 3.059000 9.082000 # 1OT TIP4
95 32 2 0.524200 7.613000 3.430000 9.089000 # 2HT TIP4
96 32 2 0.524200 8.719000 2.273000 8.348000 # 2HT TIP4
97 33 1 -1.048400 16.468000 20.295000 21.458000 # 1OT TIP4
98 33 2 0.524200 16.948999 20.908001 20.709000 # 2HT TIP4
99 33 2 0.524200 15.697000 19.700001 20.993999 # 2HT TIP4
100 34 1 -1.048400 10.517000 11.202000 30.465000 # 1OT TIP4
101 34 2 0.524200 10.563000 12.210000 30.849001 # 2HT TIP4
102 34 2 0.524200 10.908000 10.517000 31.202000 # 2HT TIP4
103 35 1 -1.048400 0.534000 33.542000 27.356001 # 1OT TIP4
104 35 2 0.524200 0.031000 32.911999 28.075001 # 2HT TIP4
105 35 2 0.524200 -0.013000 34.466000 27.242001 # 2HT TIP4
106 36 1 -1.048400 27.309999 3.814000 28.412001 # 1OT TIP4
107 36 2 0.524200 27.193001 4.877000 28.261999 # 2HT TIP4
108 36 2 0.524200 26.995001 3.555000 29.412001 # 2HT TIP4
109 37 1 -1.048400 14.046000 1.219000 1.102000 # 1OT TIP4
110 37 2 0.524200 14.866000 0.536000 0.936000 # 2HT TIP4
111 37 2 0.524200 13.546000 1.416000 0.165000 # 2HT TIP4
112 38 1 -1.048400 20.242001 15.964000 8.460000 # 1OT TIP4
113 38 2 0.524200 19.558001 15.240000 8.042000 # 2HT TIP4
114 38 2 0.524200 20.940001 16.281000 7.700000 # 2HT TIP4
115 39 1 -1.048400 20.712999 21.132999 13.916000 # 1OT TIP4
116 39 2 0.524200 20.757000 21.879000 14.696000 # 2HT TIP4
117 39 2 0.524200 19.830999 21.292999 13.315000 # 2HT TIP4
118 40 1 -1.048400 21.517000 29.847000 16.400000 # 1OT TIP4
119 40 2 0.524200 20.760000 29.457001 17.065001 # 2HT TIP4
120 40 2 0.524200 21.205999 29.698000 15.376000 # 2HT TIP4
121 41 1 -1.048400 7.478000 32.992001 9.943000 # 1OT TIP4
122 41 2 0.524200 6.867000 32.291000 10.491000 # 2HT TIP4
123 41 2 0.524200 7.300000 33.991001 10.311000 # 2HT TIP4
124 42 1 -1.048400 15.894000 16.848000 0.864000 # 1OT TIP4
125 42 2 0.524200 16.128000 15.848000 0.531000 # 2HT TIP4
126 42 2 0.524200 15.701000 16.837999 1.926000 # 2HT TIP4
127 43 1 -1.048400 9.143000 8.510000 5.557000 # 1OT TIP4
128 43 2 0.524200 9.904000 7.744000 5.592000 # 2HT TIP4
129 43 2 0.524200 9.171000 9.003000 4.597000 # 2HT TIP4
130 44 1 -1.048400 31.952000 5.257000 27.589001 # 1OT TIP4
131 44 2 0.524200 31.997999 4.262000 27.171000 # 2HT TIP4
132 44 2 0.524200 32.084000 5.985000 26.802000 # 2HT TIP4
133 45 1 -1.048400 1.655000 7.725000 30.115999 # 1OT TIP4
134 45 2 0.524200 1.199000 6.803000 29.787001 # 2HT TIP4
135 45 2 0.524200 2.105000 7.579000 31.086000 # 2HT TIP4
136 46 1 -1.048400 7.696000 18.667000 12.114000 # 1OT TIP4
137 46 2 0.524200 8.189000 17.711000 12.204000 # 2HT TIP4
138 46 2 0.524200 6.995000 18.636000 11.294000 # 2HT TIP4
139 47 1 -1.048400 23.277000 5.257000 25.191000 # 1OT TIP4
140 47 2 0.524200 23.042999 4.224000 25.403000 # 2HT TIP4
141 47 2 0.524200 24.247000 5.317000 24.719000 # 2HT TIP4
142 48 1 -1.048400 32.733002 22.169001 15.264000 # 1OT TIP4
143 48 2 0.524200 33.502998 22.865000 14.963000 # 2HT TIP4
144 48 2 0.524200 32.402000 22.409000 16.263000 # 2HT TIP4
145 49 1 -1.048400 21.322001 15.527000 10.327000 # 1OT TIP4
146 49 2 0.524200 21.995001 16.125000 10.924000 # 2HT TIP4
147 49 2 0.524200 20.650000 14.985000 10.975000 # 2HT TIP4
148 50 1 -1.048400 0.706000 30.601999 2.547000 # 1OT TIP4
149 50 2 0.524200 1.733000 30.284000 2.654000 # 2HT TIP4
150 50 2 0.524200 0.343000 30.969999 3.495000 # 2HT TIP4
151 51 1 -1.048400 13.746000 16.047001 2.687000 # 1OT TIP4
152 51 2 0.524200 12.919000 16.740999 2.741000 # 2HT TIP4
153 51 2 0.524200 13.415000 15.068000 3.000000 # 2HT TIP4
154 52 1 -1.048400 32.835999 27.586000 4.578000 # 1OT TIP4
155 52 2 0.524200 33.632999 27.000000 4.146000 # 2HT TIP4
156 52 2 0.524200 32.126999 27.854000 3.809000 # 2HT TIP4
157 53 1 -1.048400 18.608999 26.412001 21.587000 # 1OT TIP4
158 53 2 0.524200 19.462999 25.781000 21.388000 # 2HT TIP4
159 53 2 0.524200 18.424999 27.049000 20.736000 # 2HT TIP4
160 54 1 -1.048400 11.466000 9.689000 13.271000 # 1OT TIP4
161 54 2 0.524200 10.880000 8.861000 12.900000 # 2HT TIP4
162 54 2 0.524200 11.352000 9.759000 14.342000 # 2HT TIP4
163 55 1 -1.048400 28.462000 28.462000 5.932000 # 1OT TIP4
164 55 2 0.524200 27.497999 28.027000 6.156000 # 2HT TIP4
165 55 2 0.524200 28.848000 28.952999 6.813000 # 2HT TIP4
166 56 1 -1.048400 29.636000 19.066999 17.370001 # 1OT TIP4
167 56 2 0.524200 30.587000 19.465000 17.049999 # 2HT TIP4
168 56 2 0.524200 28.914000 19.172001 16.573999 # 2HT TIP4
169 57 1 -1.048400 22.650999 3.221000 10.125000 # 1OT TIP4
170 57 2 0.524200 23.061001 2.945000 11.085000 # 2HT TIP4
171 57 2 0.524200 22.412001 2.329000 9.565000 # 2HT TIP4
172 58 1 -1.048400 34.946999 1.145000 19.684000 # 1OT TIP4
173 58 2 0.524200 35.568001 0.326000 19.353001 # 2HT TIP4
174 58 2 0.524200 35.567001 2.000000 19.905001 # 2HT TIP4
175 59 1 -1.048400 26.715000 15.519000 1.192000 # 1OT TIP4
176 59 2 0.524200 25.662001 15.755000 1.142000 # 2HT TIP4
177 59 2 0.524200 26.841000 14.517000 1.572000 # 2HT TIP4
178 60 1 -1.048400 29.700001 7.720000 14.613000 # 1OT TIP4
179 60 2 0.524200 29.958000 6.801000 14.107000 # 2HT TIP4
180 60 2 0.524200 30.003000 8.561000 14.007000 # 2HT TIP4
181 61 1 -1.048400 28.326000 24.096001 30.153999 # 1OT TIP4
182 61 2 0.524200 28.479000 25.163000 30.080000 # 2HT TIP4
183 61 2 0.524200 29.195000 23.580000 29.775000 # 2HT TIP4
184 62 1 -1.048400 17.166000 34.866001 35.536999 # 1OT TIP4
185 62 2 0.524200 17.986000 35.569000 35.553001 # 2HT TIP4
186 62 2 0.524200 17.056000 34.464001 34.541000 # 2HT TIP4
187 63 1 -1.048400 19.656000 29.966000 34.627998 # 1OT TIP4
188 63 2 0.524200 19.386000 29.403000 35.508999 # 2HT TIP4
189 63 2 0.524200 20.462000 30.643999 34.866001 # 2HT TIP4
190 64 1 -1.048400 32.256001 32.521999 19.179001 # 1OT TIP4
191 64 2 0.524200 31.726999 32.006001 19.966000 # 2HT TIP4
192 64 2 0.524200 33.255001 32.119999 19.094000 # 2HT TIP4
193 65 1 -1.048400 26.091999 18.882999 8.071000 # 1OT TIP4
194 65 2 0.524200 25.146999 18.840000 7.552000 # 2HT TIP4
195 65 2 0.524200 26.259001 17.952999 8.595000 # 2HT TIP4
196 66 1 -1.048400 4.591000 34.577000 2.663000 # 1OT TIP4
197 66 2 0.524200 4.597000 35.040001 1.688000 # 2HT TIP4
198 66 2 0.524200 4.556000 33.504002 2.552000 # 2HT TIP4
199 67 1 -1.048400 6.180000 0.740000 7.541000 # 1OT TIP4
200 67 2 0.524200 6.426000 0.006000 6.787000 # 2HT TIP4
201 67 2 0.524200 5.910000 1.670000 7.064000 # 2HT TIP4
202 68 1 -1.048400 29.839001 9.029000 7.941000 # 1OT TIP4
203 68 2 0.524200 28.857000 9.447000 8.110000 # 2HT TIP4
204 68 2 0.524200 30.035000 8.988000 6.881000 # 2HT TIP4
205 69 1 -1.048400 12.845000 11.927000 15.001000 # 1OT TIP4
206 69 2 0.524200 13.777000 11.880000 14.457000 # 2HT TIP4
207 69 2 0.524200 12.712000 12.920000 15.402000 # 2HT TIP4
208 70 1 -1.048400 27.625999 13.083000 4.265000 # 1OT TIP4
209 70 2 0.524200 27.075001 12.218000 3.926000 # 2HT TIP4
210 70 2 0.524200 28.235001 13.461000 3.457000 # 2HT TIP4
211 71 1 -1.048400 22.174999 31.594000 8.073000 # 1OT TIP4
212 71 2 0.524200 21.881001 30.597000 7.778000 # 2HT TIP4
213 71 2 0.524200 22.459000 31.591999 9.114000 # 2HT TIP4
214 72 1 -1.048400 10.984000 0.111000 5.180000 # 1OT TIP4
215 72 2 0.524200 10.151000 0.739000 5.462000 # 2HT TIP4
216 72 2 0.524200 11.656000 0.007000 6.018000 # 2HT TIP4
217 73 1 -1.048400 8.622000 26.044001 32.851002 # 1OT TIP4
218 73 2 0.524200 8.488000 25.047001 33.244999 # 2HT TIP4
219 73 2 0.524200 8.934000 25.983999 31.819000 # 2HT TIP4
220 74 1 -1.048400 27.424999 25.466999 1.842000 # 1OT TIP4
221 74 2 0.524200 27.645000 26.429001 1.402000 # 2HT TIP4
222 74 2 0.524200 28.247999 24.792000 1.663000 # 2HT TIP4
223 75 1 -1.048400 21.686001 33.636002 1.033000 # 1OT TIP4
224 75 2 0.524200 22.035999 34.606998 0.714000 # 2HT TIP4
225 75 2 0.524200 22.004000 33.455002 2.049000 # 2HT TIP4
226 76 1 -1.048400 1.776000 30.837000 25.389999 # 1OT TIP4
227 76 2 0.524200 1.033000 30.094000 25.638000 # 2HT TIP4
228 76 2 0.524200 1.641000 31.704000 26.020000 # 2HT TIP4
229 77 1 -1.048400 27.156000 9.149000 10.866000 # 1OT TIP4
230 77 2 0.524200 26.299000 9.731000 10.558000 # 2HT TIP4
231 77 2 0.524200 27.132999 8.188000 10.375000 # 2HT TIP4
232 78 1 -1.048400 34.094002 12.551000 6.673000 # 1OT TIP4
233 78 2 0.524200 33.532001 13.431000 6.398000 # 2HT TIP4
234 78 2 0.524200 33.500000 11.935000 7.332000 # 2HT TIP4
235 79 1 -1.048400 31.493999 21.417999 29.017000 # 1OT TIP4
236 79 2 0.524200 31.040001 21.903000 29.868999 # 2HT TIP4
237 79 2 0.524200 30.738001 21.219000 28.271999 # 2HT TIP4
238 80 1 -1.048400 3.605000 30.455000 5.065000 # 1OT TIP4
239 80 2 0.524200 3.063000 29.552000 4.823000 # 2HT TIP4
240 80 2 0.524200 2.961000 31.125000 5.613000 # 2HT TIP4
241 81 1 -1.048400 27.604000 2.287000 19.018000 # 1OT TIP4
242 81 2 0.524200 27.309000 3.120000 19.639999 # 2HT TIP4
243 81 2 0.524200 28.454000 2.570000 18.416000 # 2HT TIP4
244 82 1 -1.048400 16.555000 23.705000 17.256001 # 1OT TIP4
245 82 2 0.524200 16.476999 24.684999 16.809000 # 2HT TIP4
246 82 2 0.524200 16.610001 22.958000 16.479000 # 2HT TIP4
247 83 1 -1.048400 14.722000 14.099000 35.200001 # 1OT TIP4
248 83 2 0.524200 14.103000 13.291000 35.564999 # 2HT TIP4
249 83 2 0.524200 14.276000 14.520000 34.311001 # 2HT TIP4
250 84 1 -1.048400 7.460000 27.480000 16.945999 # 1OT TIP4
251 84 2 0.524200 7.169000 26.983000 17.860001 # 2HT TIP4
252 84 2 0.524200 7.557000 28.539000 17.127001 # 2HT TIP4
253 85 1 -1.048400 30.259001 25.632999 19.179001 # 1OT TIP4
254 85 2 0.524200 30.443001 26.608000 19.607000 # 2HT TIP4
255 85 2 0.524200 29.225000 25.362000 19.334000 # 2HT TIP4
256 86 1 -1.048400 17.679001 30.135000 30.847000 # 1OT TIP4
257 86 2 0.524200 16.933001 30.733999 30.344999 # 2HT TIP4
258 86 2 0.524200 18.027000 29.360001 30.180000 # 2HT TIP4
259 87 1 -1.048400 24.330000 17.490000 4.319000 # 1OT TIP4
260 87 2 0.524200 23.753000 17.974001 3.544000 # 2HT TIP4
261 87 2 0.524200 24.465000 18.171000 5.146000 # 2HT TIP4
262 88 1 -1.048400 17.877001 8.508000 19.497000 # 1OT TIP4
263 88 2 0.524200 17.412001 8.678000 20.457001 # 2HT TIP4
264 88 2 0.524200 17.327999 7.748000 18.961000 # 2HT TIP4
265 89 1 -1.048400 0.392000 22.107000 19.225000 # 1OT TIP4
266 89 2 0.524200 0.166000 21.207001 19.778000 # 2HT TIP4
267 89 2 0.524200 1.145000 22.674000 19.750999 # 2HT TIP4
268 90 1 -1.048400 10.968000 0.194000 10.015000 # 1OT TIP4
269 90 2 0.524200 11.705000 0.027000 9.243000 # 2HT TIP4
270 90 2 0.524200 11.427000 0.069000 10.984000 # 2HT TIP4
271 91 1 -1.048400 5.699000 16.583000 21.091000 # 1OT TIP4
272 91 2 0.524200 6.717000 16.368999 20.802000 # 2HT TIP4
273 91 2 0.524200 5.420000 17.562000 20.729000 # 2HT TIP4
274 92 1 -1.048400 5.534000 14.104000 21.223000 # 1OT TIP4
275 92 2 0.524200 4.652000 13.482000 21.273001 # 2HT TIP4
276 92 2 0.524200 5.603000 14.553000 20.243999 # 2HT TIP4
277 93 1 -1.048400 23.943001 18.284000 12.102000 # 1OT TIP4
278 93 2 0.524200 23.745001 19.066000 12.820000 # 2HT TIP4
279 93 2 0.524200 24.510000 17.496000 12.574000 # 2HT TIP4
280 94 1 -1.048400 3.886000 34.414001 27.676001 # 1OT TIP4
281 94 2 0.524200 4.672000 33.837002 27.212000 # 2HT TIP4
282 94 2 0.524200 4.137000 35.463001 27.635000 # 2HT TIP4
283 95 1 -1.048400 22.812000 32.470001 19.562000 # 1OT TIP4
284 95 2 0.524200 23.767000 32.908001 19.313999 # 2HT TIP4
285 95 2 0.524200 22.502001 32.811001 20.539000 # 2HT TIP4
286 96 1 -1.048400 1.047000 31.188999 29.177999 # 1OT TIP4
287 96 2 0.524200 -0.001000 30.941000 29.096001 # 2HT TIP4
288 96 2 0.524200 1.478000 31.260000 28.190001 # 2HT TIP4
289 97 1 -1.048400 10.977000 9.336000 29.347000 # 1OT TIP4
290 97 2 0.524200 11.886000 8.823000 29.072001 # 2HT TIP4
291 97 2 0.524200 10.285000 9.313000 28.518999 # 2HT TIP4
292 98 1 -1.048400 21.577000 34.480000 4.681000 # 1OT TIP4
293 98 2 0.524200 21.830000 34.886002 3.713000 # 2HT TIP4
294 98 2 0.524200 20.582001 34.062000 4.647000 # 2HT TIP4
295 99 1 -1.048400 12.981000 14.284000 6.667000 # 1OT TIP4
296 99 2 0.524200 13.325000 13.611000 7.439000 # 2HT TIP4
297 99 2 0.524200 11.933000 14.107000 6.476000 # 2HT TIP4
298 100 1 -1.048400 0.307000 13.382000 1.719000 # 1OT TIP4
299 100 2 0.524200 0.001000 12.476000 2.221000 # 2HT TIP4
300 100 2 0.524200 1.320000 13.271000 1.362000 # 2HT TIP4
301 101 1 -1.048400 6.747000 9.079000 15.696000 # 1OT TIP4
302 101 2 0.524200 5.756000 9.245000 16.091000 # 2HT TIP4
303 101 2 0.524200 7.377000 8.661000 16.468000 # 2HT TIP4
304 102 1 -1.048400 26.792999 1.065000 27.732000 # 1OT TIP4
305 102 2 0.524200 26.181999 1.548000 26.983999 # 2HT TIP4
306 102 2 0.524200 26.811001 0.001000 27.549000 # 2HT TIP4
307 103 1 -1.048400 22.601000 5.596000 19.789000 # 1OT TIP4
308 103 2 0.524200 21.688000 5.203000 20.209999 # 2HT TIP4
309 103 2 0.524200 22.422001 5.915000 18.774000 # 2HT TIP4
310 104 1 -1.048400 26.296000 26.775000 20.021999 # 1OT TIP4
311 104 2 0.524200 26.493999 26.865000 21.080000 # 2HT TIP4
312 104 2 0.524200 25.481001 27.429001 19.750999 # 2HT TIP4
313 105 1 -1.048400 30.322001 7.607000 9.753000 # 1OT TIP4
314 105 2 0.524200 30.884001 8.526000 9.828000 # 2HT TIP4
315 105 2 0.524200 30.826000 6.930000 9.080000 # 2HT TIP4
316 106 1 -1.048400 25.764999 24.913000 28.410000 # 1OT TIP4
317 106 2 0.524200 25.964001 25.961000 28.579000 # 2HT TIP4
318 106 2 0.524200 26.579000 24.323999 28.806000 # 2HT TIP4
319 107 1 -1.048400 23.201000 22.794001 22.855000 # 1OT TIP4
320 107 2 0.524200 23.049999 23.729000 23.372999 # 2HT TIP4
321 107 2 0.524200 23.230000 22.972000 21.790001 # 2HT TIP4
322 108 1 -1.048400 32.407001 31.104000 24.090000 # 1OT TIP4
323 108 2 0.524200 33.417999 30.768000 24.270000 # 2HT TIP4
324 108 2 0.524200 31.767000 30.250999 23.924999 # 2HT TIP4
325 109 1 -1.048400 12.102000 26.357000 0.702000 # 1OT TIP4
326 109 2 0.524200 12.506000 27.233999 0.218000 # 2HT TIP4
327 109 2 0.524200 11.485000 25.812000 0.004000 # 2HT TIP4
328 110 1 -1.048400 4.156000 14.301000 24.184000 # 1OT TIP4
329 110 2 0.524200 3.165000 13.970000 23.910000 # 2HT TIP4
330 110 2 0.524200 4.790000 14.300000 23.309999 # 2HT TIP4
331 111 1 -1.048400 14.665000 24.472000 15.036000 # 1OT TIP4
332 111 2 0.524200 15.642000 24.804001 14.717000 # 2HT TIP4
333 111 2 0.524200 14.377000 25.006001 15.929000 # 2HT TIP4
334 112 1 -1.048400 31.955000 33.471001 23.576000 # 1OT TIP4
335 112 2 0.524200 32.808998 33.265999 24.204000 # 2HT TIP4
336 112 2 0.524200 32.041000 32.911999 22.657000 # 2HT TIP4
337 113 1 -1.048400 7.128000 23.205999 3.487000 # 1OT TIP4
338 113 2 0.524200 6.617000 22.320000 3.834000 # 2HT TIP4
339 113 2 0.524200 7.298000 23.131001 2.424000 # 2HT TIP4
340 114 1 -1.048400 18.198999 30.115999 15.343000 # 1OT TIP4
341 114 2 0.524200 18.841999 29.299000 15.049000 # 2HT TIP4
342 114 2 0.524200 17.686001 30.500999 14.474000 # 2HT TIP4
343 115 1 -1.048400 34.849998 15.550000 26.934999 # 1OT TIP4
344 115 2 0.524200 35.098000 16.573999 27.170000 # 2HT TIP4
345 115 2 0.524200 33.787998 15.467000 26.761000 # 2HT TIP4
346 116 1 -1.048400 29.089001 8.049000 17.573000 # 1OT TIP4
347 116 2 0.524200 28.653999 8.208000 18.549000 # 2HT TIP4
348 116 2 0.524200 29.312000 9.003000 17.118999 # 2HT TIP4
349 117 1 -1.048400 1.675000 13.799000 11.735000 # 1OT TIP4
350 117 2 0.524200 0.949000 14.555000 11.474000 # 2HT TIP4
351 117 2 0.524200 1.755000 13.084000 10.931000 # 2HT TIP4
352 118 1 -1.048400 17.910999 22.427999 14.597000 # 1OT TIP4
353 118 2 0.524200 18.497999 22.166000 15.465000 # 2HT TIP4
354 118 2 0.524200 17.752001 21.548000 13.991000 # 2HT TIP4
355 119 1 -1.048400 33.405998 25.091999 33.292000 # 1OT TIP4
356 119 2 0.524200 33.497002 26.028999 33.821999 # 2HT TIP4
357 119 2 0.524200 34.058998 24.358999 33.741001 # 2HT TIP4
358 120 1 -1.048400 34.202000 11.718000 23.774000 # 1OT TIP4
359 120 2 0.524200 33.438000 11.554000 24.520000 # 2HT TIP4
360 120 2 0.524200 33.872002 11.317000 22.827999 # 2HT TIP4
361 121 1 -1.048400 33.987999 27.603001 13.692000 # 1OT TIP4
362 121 2 0.524200 34.655998 27.021000 13.076000 # 2HT TIP4
363 121 2 0.524200 34.089001 28.650000 13.446000 # 2HT TIP4
364 122 1 -1.048400 29.736000 1.685000 19.969999 # 1OT TIP4
365 122 2 0.524200 30.099001 0.672000 20.065001 # 2HT TIP4
366 122 2 0.524200 29.504000 2.077000 20.948999 # 2HT TIP4
367 123 1 -1.048400 28.781000 28.555000 19.233000 # 1OT TIP4
368 123 2 0.524200 29.601999 28.575001 18.532000 # 2HT TIP4
369 123 2 0.524200 28.409000 27.545000 19.323999 # 2HT TIP4
370 124 1 -1.048400 1.992000 25.368999 1.114000 # 1OT TIP4
371 124 2 0.524200 1.376000 25.181000 0.246000 # 2HT TIP4
372 124 2 0.524200 2.311000 24.429001 1.539000 # 2HT TIP4
373 125 1 -1.048400 9.514000 10.228000 10.023000 # 1OT TIP4
374 125 2 0.524200 9.275000 9.257000 10.432000 # 2HT TIP4
375 125 2 0.524200 10.139000 10.106000 9.150000 # 2HT TIP4
376 126 1 -1.048400 23.351000 30.856001 33.445000 # 1OT TIP4
377 126 2 0.524200 22.492001 30.978001 34.088001 # 2HT TIP4
378 126 2 0.524200 23.493999 29.808001 33.230000 # 2HT TIP4
379 127 1 -1.048400 17.780001 3.175000 33.453999 # 1OT TIP4
380 127 2 0.524200 18.289000 2.250000 33.227001 # 2HT TIP4
381 127 2 0.524200 17.854000 3.844000 32.610001 # 2HT TIP4
382 128 1 -1.048400 3.627000 32.717999 35.227001 # 1OT TIP4
383 128 2 0.524200 3.492000 32.255001 34.261002 # 2HT TIP4
384 128 2 0.524200 4.275000 33.576000 35.127998 # 2HT TIP4
385 129 1 -1.048400 11.309000 19.737000 19.524000 # 1OT TIP4
386 129 2 0.524200 10.438000 19.611000 18.896999 # 2HT TIP4
387 129 2 0.524200 11.175000 20.601999 20.156000 # 2HT TIP4
388 130 1 -1.048400 19.363001 21.450001 6.861000 # 1OT TIP4
389 130 2 0.524200 18.607000 21.577000 7.621000 # 2HT TIP4
390 130 2 0.524200 20.339001 21.613001 7.293000 # 2HT TIP4
391 131 1 -1.048400 0.183000 27.511000 31.027000 # 1OT TIP4
392 131 2 0.524200 0.001000 26.490999 31.333000 # 2HT TIP4
393 131 2 0.524200 0.001000 28.174999 31.858999 # 2HT TIP4
394 132 1 -1.048400 25.393000 8.094000 35.101002 # 1OT TIP4
395 132 2 0.524200 26.284000 8.644000 34.834999 # 2HT TIP4
396 132 2 0.524200 24.700001 8.108000 34.272999 # 2HT TIP4
397 133 1 -1.048400 9.759000 34.493000 31.962000 # 1OT TIP4
398 133 2 0.524200 10.307000 34.945000 32.775002 # 2HT TIP4
399 133 2 0.524200 9.078000 33.752998 32.355000 # 2HT TIP4
400 134 1 -1.048400 13.350000 1.977000 3.582000 # 1OT TIP4
401 134 2 0.524200 13.741000 0.972000 3.520000 # 2HT TIP4
402 134 2 0.524200 12.301000 1.971000 3.327000 # 2HT TIP4
403 135 1 -1.048400 2.642000 6.175000 6.547000 # 1OT TIP4
404 135 2 0.524200 1.755000 6.469000 6.005000 # 2HT TIP4
405 135 2 0.524200 3.485000 6.150000 5.872000 # 2HT TIP4
406 136 1 -1.048400 34.330002 14.694000 29.379000 # 1OT TIP4
407 136 2 0.524200 33.771999 14.220000 28.584999 # 2HT TIP4
408 136 2 0.524200 34.523998 15.724000 29.118000 # 2HT TIP4
409 137 1 -1.048400 20.200001 27.240999 22.941000 # 1OT TIP4
410 137 2 0.524200 19.538000 26.754000 23.642000 # 2HT TIP4
411 137 2 0.524200 20.225000 28.299999 23.145000 # 2HT TIP4
412 138 1 -1.048400 12.172000 0.031000 2.298000 # 1OT TIP4
413 138 2 0.524200 11.765000 0.115000 1.301000 # 2HT TIP4
414 138 2 0.524200 11.366000 0.004000 3.016000 # 2HT TIP4
415 139 1 -1.048400 3.105000 3.593000 6.692000 # 1OT TIP4
416 139 2 0.524200 2.457000 2.934000 6.131000 # 2HT TIP4
417 139 2 0.524200 4.105000 3.544000 6.288000 # 2HT TIP4
418 140 1 -1.048400 31.087000 19.891001 9.043000 # 1OT TIP4
419 140 2 0.524200 30.263000 20.194000 9.671000 # 2HT TIP4
420 140 2 0.524200 31.099001 18.815001 8.957000 # 2HT TIP4
421 141 1 -1.048400 4.235000 22.120001 18.077000 # 1OT TIP4
422 141 2 0.524200 5.299000 22.296000 18.018999 # 2HT TIP4
423 141 2 0.524200 4.047000 21.236000 18.666000 # 2HT TIP4
424 142 1 -1.048400 17.844999 9.738000 27.659000 # 1OT TIP4
425 142 2 0.524200 18.596001 10.089000 26.966999 # 2HT TIP4
426 142 2 0.524200 18.316000 9.152000 28.434000 # 2HT TIP4
427 143 1 -1.048400 31.323000 12.310000 26.195999 # 1OT TIP4
428 143 2 0.524200 32.194000 12.251000 26.832001 # 2HT TIP4
429 143 2 0.524200 30.527000 11.717000 26.620001 # 2HT TIP4
430 144 1 -1.048400 18.728001 25.489000 31.770000 # 1OT TIP4
431 144 2 0.524200 19.485001 24.792000 32.098000 # 2HT TIP4
432 144 2 0.524200 18.662001 25.468000 30.691999 # 2HT TIP4
433 145 1 -1.048400 13.765000 25.676001 25.200001 # 1OT TIP4
434 145 2 0.524200 13.168000 26.403000 24.667000 # 2HT TIP4
435 145 2 0.524200 14.634000 25.424000 24.611000 # 2HT TIP4
436 146 1 -1.048400 10.194000 13.732000 12.616000 # 1OT TIP4
437 146 2 0.524200 10.501000 12.813000 13.094000 # 2HT TIP4
438 146 2 0.524200 10.191000 14.532000 13.341000 # 2HT TIP4
439 147 1 -1.048400 2.711000 34.946999 7.245000 # 1OT TIP4
440 147 2 0.524200 3.319000 35.568001 7.885000 # 2HT TIP4
441 147 2 0.524200 2.189000 35.568001 6.531000 # 2HT TIP4
442 148 1 -1.048400 14.537000 28.322001 25.577000 # 1OT TIP4
443 148 2 0.524200 13.780000 27.889999 26.216999 # 2HT TIP4
444 148 2 0.524200 15.392000 28.605000 26.172001 # 2HT TIP4
445 149 1 -1.048400 26.719000 35.562000 24.283001 # 1OT TIP4
446 149 2 0.524200 27.160000 35.562000 23.297001 # 2HT TIP4
447 149 2 0.524200 26.799999 34.576000 24.712999 # 2HT TIP4
448 150 1 -1.048400 13.050000 31.834000 33.792000 # 1OT TIP4
449 150 2 0.524200 14.033000 31.659000 34.202999 # 2HT TIP4
450 150 2 0.524200 12.353000 32.028000 34.592999 # 2HT TIP4
451 151 1 -1.048400 11.571000 29.705000 20.221001 # 1OT TIP4
452 151 2 0.524200 12.069000 30.158001 21.066000 # 2HT TIP4
453 151 2 0.524200 11.288000 30.472000 19.516001 # 2HT TIP4
454 152 1 -1.048400 6.560000 16.684999 31.921000 # 1OT TIP4
455 152 2 0.524200 6.607000 15.663000 31.573999 # 2HT TIP4
456 152 2 0.524200 7.526000 16.981001 32.299999 # 2HT TIP4
457 153 1 -1.048400 28.658001 13.303000 23.362000 # 1OT TIP4
458 153 2 0.524200 28.558001 12.374000 23.903999 # 2HT TIP4
459 153 2 0.524200 27.816999 13.943000 23.586000 # 2HT TIP4
460 154 1 -1.048400 9.131000 24.247000 20.100000 # 1OT TIP4
461 154 2 0.524200 8.711000 24.118000 19.113001 # 2HT TIP4
462 154 2 0.524200 9.659000 23.350000 20.386999 # 2HT TIP4
463 155 1 -1.048400 23.981001 21.197001 11.918000 # 1OT TIP4
464 155 2 0.524200 24.195999 21.371000 10.874000 # 2HT TIP4
465 155 2 0.524200 23.799000 22.139999 12.411000 # 2HT TIP4
466 156 1 -1.048400 27.132999 28.052999 35.505001 # 1OT TIP4
467 156 2 0.524200 27.614000 27.257999 34.953999 # 2HT TIP4
468 156 2 0.524200 26.072001 27.860001 35.561001 # 2HT TIP4
469 157 1 -1.048400 1.948000 4.582000 15.245000 # 1OT TIP4
470 157 2 0.524200 1.862000 3.677000 14.661000 # 2HT TIP4
471 157 2 0.524200 2.322000 4.341000 16.229000 # 2HT TIP4
472 158 1 -1.048400 21.844999 15.829000 32.410000 # 1OT TIP4
473 158 2 0.524200 21.124001 16.163000 33.141998 # 2HT TIP4
474 158 2 0.524200 22.843000 15.977000 32.793999 # 2HT TIP4
475 159 1 -1.048400 8.640000 3.281000 14.887000 # 1OT TIP4
476 159 2 0.524200 9.108000 3.284000 13.913000 # 2HT TIP4
477 159 2 0.524200 7.934000 4.095000 14.950000 # 2HT TIP4
478 160 1 -1.048400 14.921000 16.572001 18.211000 # 1OT TIP4
479 160 2 0.524200 15.848000 16.709000 17.673000 # 2HT TIP4
480 160 2 0.524200 14.513000 15.599000 17.983000 # 2HT TIP4
481 161 1 -1.048400 34.709000 0.321000 25.099001 # 1OT TIP4
482 161 2 0.524200 33.714001 0.003000 25.372999 # 2HT TIP4
483 161 2 0.524200 35.178001 0.803000 25.944000 # 2HT TIP4
484 162 1 -1.048400 34.269001 2.554000 33.731998 # 1OT TIP4
485 162 2 0.524200 34.471001 1.819000 32.966999 # 2HT TIP4
486 162 2 0.524200 34.118000 2.057000 34.679001 # 2HT TIP4
487 163 1 -1.048400 26.462000 1.123000 3.476000 # 1OT TIP4
488 163 2 0.524200 26.681999 1.976000 2.851000 # 2HT TIP4
489 163 2 0.524200 27.028999 1.193000 4.392000 # 2HT TIP4
490 164 1 -1.048400 20.177000 29.936001 1.949000 # 1OT TIP4
491 164 2 0.524200 19.101999 29.974001 2.048000 # 2HT TIP4
492 164 2 0.524200 20.437000 29.775000 0.913000 # 2HT TIP4
493 165 1 -1.048400 34.935001 0.817000 28.180000 # 1OT TIP4
494 165 2 0.524200 35.575001 -0.021000 27.945000 # 2HT TIP4
495 165 2 0.524200 35.514999 1.727000 28.170000 # 2HT TIP4
496 166 1 -1.048400 1.026000 25.629000 22.690001 # 1OT TIP4
497 166 2 0.524200 0.147000 26.201000 22.947001 # 2HT TIP4
498 166 2 0.524200 1.728000 25.658001 23.509001 # 2HT TIP4
499 167 1 -1.048400 4.347000 2.389000 8.435000 # 1OT TIP4
500 167 2 0.524200 4.814000 1.616000 9.026000 # 2HT TIP4
501 167 2 0.524200 3.506000 2.797000 8.975000 # 2HT TIP4
502 168 1 -1.048400 21.753000 9.477000 25.159000 # 1OT TIP4
503 168 2 0.524200 22.825001 9.572000 25.069000 # 2HT TIP4