LAMMPS data file via write_data, version 7 Aug 2019, timestep = 2000176

4500 atoms
2 atom types
3000 bonds
1 bond types
1500 angles
1 angle types

-5.3223316729712522e-01 3.6063233167298385e+01 xlo xhi
-5.5417702258825585e-01 3.6111177022590084e+01 ylo yhi
-5.7502434011530568e-01 3.6079024340106983e+01 zlo zhi

Masses

1 1.00794
2 15.9994

Pair Coeffs # lj/cut/coul/long/gpu

1 0 0
2 0.155394 3.16556

Bond Coeffs # harmonic

1 5000 1

Angle Coeffs # harmonic

1 500 109.47

Atoms # full

2089 697 2 -8.4760000000000002e-01 5.6813549134455892e+00 4.9716303406647455e-01 3.7798900500504882e+00 3 -1 3
3671 1224 1 4.2380000000000001e-01 5.1201179442544094e+00 1.8092566231049743e+00 5.0037665844313510e+00 1 0 -1
1095 365 1 4.2380000000000001e-01 5.6827153607375536e-01 1.1715126371083029e+00 3.9561501732053639e+00 2 1 4
3191 1064 1 4.2380000000000001e-01 1.6116138097585551e+00 3.7017006386723441e+00 4.5632314813526502e+00 4 1 2
3192 1064 1 4.2380000000000001e-01 3.8145247382253444e-01 2.9447780783019528e+00 3.8019850828457225e+00 4 1 2
2331 777 1 4.2380000000000001e-01 2.1751201157546283e+00 2.6405527797825523e+00 2.2290715397968364e+00 -4 -1 0
2162 721 1 4.2380000000000001e-01 5.6387415865323032e-01 3.1112119863597196e+00 4.3242612015598314e-01 -4 0 0
2329 777 2 -8.4760000000000002e-01 1.8251533980641770e+00 2.1687438456596535e+00 1.4200088554538526e+00 -4 -1 0
1094 365 1 4.2380000000000001e-01 -1.6854344148158545e-01 -4.9581885451529306e-02 3.1613195685641009e+00 2 1 4
1093 365 2 -8.4760000000000002e-01 4.5983540717651616e-01 1.7891282905721895e-01 3.9046848840851327e+00 2 1 4
1984 662 2 -8.4760000000000002e-01 3.0883998295912063e+00 -4.4736771692864874e-01 1.5594254103000487e+00 -2 1 3
3190 1064 2 -8.4760000000000002e-01 1.3720535670777072e+00 2.9603192733242421e+00 3.9366321963107440e+00 4 1 2
861 287 1 4.2380000000000001e-01 9.9860941315794061e-01 5.5924862603978198e+00 1.3851028280008200e+00 2 0 2
2330 777 1 4.2380000000000001e-01 2.2448931907511951e+00 1.2636590244393930e+00 1.3544174559132414e+00 -4 -1 0
2090 697 1 4.2380000000000001e-01 6.4838088124922724e+00 8.6575900678909878e-01 3.3109910968854055e+00 3 -1 3
2067 689 1 4.2380000000000001e-01 5.5860141436235642e+00 5.3357050053225441e+00 5.5983177717127663e+00 1 1 3
2063 688 1 4.2380000000000001e-01 9.1305753669267062e+00 9.3776592016057991e-01 2.2204468011860836e+00 -1 -1 1
952 318 2 -8.4760000000000002e-01 7.9002353961549350e+00 4.1465251434810000e+00 2.9456030703169023e+00 0 2 0
953 318 1 4.2380000000000001e-01 7.8429363081088415e+00 3.8290027882732174e+00 1.9992640800029391e+00 0 2 0
3400 1134 2 -8.4760000000000002e-01 1.1766308324353238e+01 3.8318453063016811e-01 4.6547004532399230e+00 1 0 0
2960 987 1 4.2380000000000001e-01 1.1695029557021222e+01 4.4235071502675352e+00 5.8132375590762040e+00 -2 0 1
2065 689 2 -8.4760000000000002e-01 5.8482640605471179e+00 4.5748950751345445e+00 6.1916595305581064e+00 1 1 3
954 318 1 4.2380000000000001e-01 7.1917144507284956e+00 4.8324434626029591e+00 3.1104525080621528e+00 0 2 0
2062 688 2 -8.4760000000000002e-01 8.8850597725015419e+00 9.9287147433717826e-01 3.1880972971045378e+00 -1 -1 1
2064 688 1 4.2380000000000001e-01 8.7547006911009646e+00 1.9503440750157774e+00 3.4448351753433215e+00 -1 -1 1
2900 967 1 4.2380000000000001e-01 1.7394063201017374e+01 2.7652831179365154e+00 1.7662108341128169e-01 2 2 1
1774 592 2 -8.4760000000000002e-01 1.0632053134290517e+01 3.7200027923983141e+00 3.6445304737420221e+00 0 0 -1
1775 592 1 4.2380000000000001e-01 9.7107399522264828e+00 3.9077598102771205e+00 3.3045429044813521e+00 0 0 -1
819 273 1 4.2380000000000001e-01 1.0791446304221852e+01 1.1787319853480218e+00 4.1829782266649218e-01 0 2 0
818 273 1 4.2380000000000001e-01 9.2900712832418009e+00 1.2312011316178684e+00 -2.2111272898710049e-01 0 2 0
817 273 2 -8.4760000000000002e-01 9.8808602836899642e+00 1.5824323660017945e+00 5.0501932522552773e-01 0 2 0
1776 592 1 4.2380000000000001e-01 1.0877231388411658e+01 2.7731194101651373e+00 3.4372578755927048e+00 0 0 -1
662 221 1 4.2380000000000001e-01 1.4343763876921546e+01 2.2792731809901947e+00 1.9027293807712056e+00 3 -1 2
661 221 2 -8.4760000000000002e-01 1.3629224635103288e+01 1.5907785609888516e+00 2.0254914636441215e+00 3 -1 2
663 221 1 4.2380000000000001e-01 1.3956675086751931e+01 8.7741345190317332e-01 2.6448042164483314e+00 3 -1 2
3434 1145 1 4.2380000000000001e-01 1.3451114438908787e+01 2.4300115306360284e+00 4.8323387755315794e+00 -2 -1 0
3433 1145 2 -8.4760000000000002e-01 1.4320931141973851e+01 2.9179925182071464e+00 4.7619434978348689e+00 -2 -1 0
1532 511 1 4.2380000000000001e-01 1.2601214255385536e+01 1.4825057123029679e+00 6.2663283573234740e-01 1 0 0
3401 1134 1 4.2380000000000001e-01 1.0952549718945980e+01 6.6110044040380411e-01 5.1648196879651556e+00 1 0 0
1688 563 1 4.2380000000000001e-01 1.7225564464704860e+01 4.1433523218791048e+00 4.5171958174841578e+00 -2 -2 0
4005 1335 1 4.2380000000000001e-01 1.5716110697927082e+01 4.4962794786389635e+00 1.7988373156847941e+00 -1 0 2
4004 1335 1 4.2380000000000001e-01 1.4975567105756959e+01 4.7840357029472482e+00 3.2252013654249709e+00 -1 0 2
4003 1335 2 -8.4760000000000002e-01 1.5030357590973624e+01 4.1614253570350819e+00 2.4448067725361571e+00 -1 0 2
3435 1145 1 4.2380000000000001e-01 1.4407054217046811e+01 3.3155340885024311e+00 3.8485947926628992e+00 -2 -1 0
1170 390 1 4.2380000000000001e-01 1.6032761589103629e+01 1.5829145240364513e+00 4.7200792327271781e+00 -1 3 -1
1168 390 2 -8.4760000000000002e-01 1.6045662507221866e+01 6.1911636029444606e-01 4.4543949775970271e+00 -1 3 -1
1169 390 1 4.2380000000000001e-01 1.6927381680080526e+01 2.1726094060400125e-01 4.7008630192468477e+00 -1 3 -1
1420 474 2 -8.4760000000000002e-01 1.1958075676463032e+01 5.1504684787663884e+00 2.7420579615721219e-01 -2 1 0
1531 511 2 -8.4760000000000002e-01 1.2275645558321060e+01 9.6224779232179403e-01 -1.6266983011321340e-01 1 0 0
3488 1163 1 4.2380000000000001e-01 1.8127185864815640e+01 1.7332468771372933e+00 3.0618208150631285e+00 0 3 -5
1687 563 2 -8.4760000000000002e-01 1.8032835985177680e+01 3.7886621266549136e+00 4.0458478653009760e+00 -2 -2 0
1689 563 1 4.2380000000000001e-01 1.8748190125715531e+01 3.5881803833661472e+00 4.7149793032349985e+00 -2 -2 0
2344 782 2 -8.4760000000000002e-01 1.8483102510366230e+01 -2.6265463610553291e-01 5.2376401120053853e+00 1 -1 -1
2345 782 1 4.2380000000000001e-01 1.8477247681320218e+01 3.5385674008242352e-01 6.0247492996670680e+00 1 -1 -1
207 69 1 4.2380000000000001e-01 2.1587753762066242e+01 4.2487166016024966e+00 4.7574410281201840e-01 0 0 3
11 4 1 4.2380000000000001e-01 2.0212078940760463e+01 2.1446799337147922e+00 3.6929927906204547e+00 -2 -1 -1
2148 716 1 4.2380000000000001e-01 2.3291573794762680e+01 2.3410787812810638e+00 5.8290586898151338e+00 -2 0 1
12 4 1 4.2380000000000001e-01 2.1569301506599370e+01 2.7517702316645423e+00 3.0183733539634900e+00 -2 -1 -1
10 4 2 -8.4760000000000002e-01 2.1004024779371100e+01 2.7362912730598916e+00 3.8429243249401521e+00 -2 -1 -1
205 69 2 -8.4760000000000002e-01 2.2499114206439629e+01 3.8381532061532431e+00 4.5290991795599544e-01 0 0 3
2550 850 1 4.2380000000000001e-01 1.9944121329806020e+01 4.8871185742591585e+00 2.1044263512016719e+00 -2 -1 -1
2548 850 2 -8.4760000000000002e-01 1.9997529893325115e+01 4.7801040905558452e+00 1.1117749379889104e+00 -2 -1 -1
3507 1169 1 4.2380000000000001e-01 9.0966522154362011e+00 6.8351843592131951e+00 1.7110833234049210e+01 0 -2 1
2901 967 1 4.2380000000000001e-01 1.7914395412439912e+01 3.7134242993069764e+00 1.3997343417547914e+00 2 2 1
2549 850 1 4.2380000000000001e-01 1.9139324772926891e+01 5.0824133572155699e+00 6.9734238130596737e-01 -2 -1 -1
2201 734 1 4.2380000000000001e-01 2.2894789498327064e+01 5.8084365527905089e+00 1.4299477032005288e+00 -1 -3 4
206 69 1 4.2380000000000001e-01 2.2552808104634710e+01 3.1879084210387729e+00 -3.0469165520053160e-01 0 0 3
1576 526 2 -8.4760000000000002e-01 2.1875977285634402e+01 5.4348513581534625e+00 4.7224331432580380e+00 0 1 0
1578 526 1 4.2380000000000001e-01 2.1635526615715527e+01 4.5140644483724008e+00 4.4158451474433562e+00 0 1 0
1577 526 1 4.2380000000000001e-01 2.2870622705285285e+01 5.5365380718598738e+00 4.7237557396382970e+00 0 1 0
2899 967 2 -8.4760000000000002e-01 1.7322374182644978e+01 3.6704573001791498e+00 5.9516846325613204e-01 2 2 1
260 87 1 4.2380000000000001e-01 1.2521527325197313e+01 1.0916459621732352e+01 -1.5909316631179876e-01 -4 0 -1
3489 1163 1 4.2380000000000001e-01 1.7988165751687585e+01 3.9514624883567429e-01 2.1366814023938976e+00 0 3 -5
3487 1163 2 -8.4760000000000002e-01 1.8630424060199513e+01 1.0539981242975009e+00 2.5279354371408589e+00 0 3 -5
3618 1206 1 4.2380000000000001e-01 1.7039817760759888e+01 3.1480583716184842e+00 1.7525855426234276e+01 4 0 -3
982 328 2 -8.4760000000000002e-01 2.8270702820685067e+01 -3.4762436613165776e-01 -1.9037677954172444e-01 1 2 0
3826 1276 2 -8.4760000000000002e-01 1.3375755890356700e+01 1.6189358153182699e+01 -4.7012037453980643e-01 -4 -3 5
3347 1116 1 4.2380000000000001e-01 2.5388991723440189e+01 4.1004678873613001e+00 2.1838572549319846e+00 -3 3 1
2262 754 1 4.2380000000000001e-01 2.7027212579339430e+01 5.3879922686367943e+00 3.4020377823897325e+00 1 0 -2
640 214 2 -8.4760000000000002e-01 2.4541009731300893e+01 2.6770758785829187e+00 4.6637880622351684e+00 -1 2 -1
642 214 1 4.2380000000000001e-01 2.4580550404826973e+01 3.1735513513157567e+00 3.7968334845236287e+00 -1 2 -1
2721 907 1 4.2380000000000001e-01 2.7980460256054812e+01 4.2411611126090163e+00 6.1918085151608615e+00 -1 -2 5
2720 907 1 4.2380000000000001e-01 2.8599608716266982e+01 4.0594898539760438e+00 4.6920173059400581e+00 -1 -2 5
2719 907 2 -8.4760000000000002e-01 2.8072634906409476e+01 4.6630705728157515e+00 5.2900559689812932e+00 -1 -2 5
3346 1116 2 -8.4760000000000002e-01 2.4665163002167851e+01 3.4356755716711351e+00 2.0000451386485385e+00 -3 3 1
641 214 1 4.2380000000000001e-01 2.5306127920542426e+01 2.0355406109395249e+00 4.7156326806587456e+00 -1 2 -1
3593 1198 1 4.2380000000000001e-01 2.5525597352743034e+01 1.1007368264668880e+01 -4.7940515536872996e-01 2 0 0
3348 1116 1 4.2380000000000001e-01 2.3935586867432278e+01 3.8739151139383443e+00 1.4753284177911494e+00 -3 3 1
2113 705 2 -8.4760000000000002e-01 2.9118994350868224e+01 3.3780438313685903e+00 2.7214658790457991e+00 -2 1 0
3514 1172 2 -8.4760000000000002e-01 2.4515349285969148e+01 5.5109840691231851e+00 5.0028502965698038e+00 -3 0 6
3516 1172 1 4.2380000000000001e-01 2.4895169156536760e+01 4.6088479590814710e+00 5.2066852570023983e+00 -3 0 6
2289 763 1 4.2380000000000001e-01 2.5921291187990356e+01 2.4159672137891248e+00 3.4585357895308499e-01 -1 3 0
4258 1420 2 -8.4760000000000002e-01 2.7131198901339260e+01 1.1286419851915888e+00 4.4544761814275535e+00 1 2 1
3537 1179 1 4.2380000000000001e-01 2.7133720114405957e+01 2.1609996199703541e-01 2.7955818697669028e+00 2 0 3
3151 1051 2 -8.4760000000000002e-01 1.6298001133565460e+01 1.7631145512099241e+01 4.3572691553534133e+00 -2 2 2
3505 1169 2 -8.4760000000000002e-01 8.3915996322168613e+00 6.1581534462958851e+00 1.6900613256132782e+01 0 -2 1
386 129 1 4.2380000000000001e-01 9.5150006547376371e+00 5.4684752227732227e+00 -2.9464718393358857e-01 0 1 3
2163 721 1 4.2380000000000001e-01 3.5745401381113965e+01 3.8664112420513499e+00 1.2230454125788026e-01 -5 0 0
2161 721 2 -8.4760000000000002e-01 1.0279962678947585e-01 3.9976036427172632e+00 3.9525029770930009e-01 -4 0 0
2248 750 2 -8.4760000000000002e-01 3.1735096124694490e+01 3.2258324708038923e+00 -6.5629328015454957e-02 2 1 -1
4013 1338 1 4.2380000000000001e-01 2.5253423571759193e+01 1.1702743205238944e+00 1.7212113628656599e+01 2 2 2
2215 739 2 -8.4760000000000002e-01 3.5648151408146816e+01 1.0327005730646581e+00 1.5499764070938538e+00 -3 0 2
2217 739 1 4.2380000000000001e-01 3.4966491004582522e+01 1.7628249349356504e+00 1.5061520287027057e+00 -3 0 2
3274 1092 2 -8.4760000000000002e-01 3.4015018246773508e+01 5.1682291582777520e+00 3.6153775887570117e+00 -1 0 3
3722 1241 1 4.2380000000000001e-01 3.2638931645563147e+01 3.7084740315707840e+00 5.6596502542426368e+00 -1 2 -1
2114 705 1 4.2380000000000001e-01 2.8985986548228830e+01 2.4227592123551132e+00 2.9849087392815461e+00 -2 1 0
4032 1344 1 4.2380000000000001e-01 3.4018974496511731e+01 4.0343191756905572e+00 1.8912075458504645e+00 -1 -1 2
2216 739 1 4.2380000000000001e-01 -6.8597696914094841e-02 1.3769099964116227e+00 1.2197678651461596e+00 -2 0 2
4030 1344 2 -8.4760000000000002e-01 3.3920113736498521e+01 3.2857310890146225e+00 1.2358419641027314e+00 -1 -1 2
3276 1092 1 4.2380000000000001e-01 3.3744031508555452e+01 4.8218459181471607e+00 4.5132905248754351e+00 -1 0 3
2367 789 1 4.2380000000000001e-01 3.1500997482231963e+01 8.9582798807728103e-01 2.1644802863063251e-01 2 -2 3
4031 1344 1 4.2380000000000001e-01 3.3168850544756580e+01 3.4892566032650629e+00 6.0827344031977382e-01 -1 -1 2
4124 1375 1 4.2380000000000001e-01 3.4456520883289230e+01 -1.2734299137668548e-01 2.2599502703241909e+00 0 0 0
2365 789 2 -8.4760000000000002e-01 3.1824896401664862e+01 1.4902049457310773e-02 5.6100636117954816e-01 2 -2 3
2115 705 1 4.2380000000000001e-01 2.9361367961882948e+01 3.4259159752703927e+00 1.7526391912334915e+00 -2 1 0
1748 583 1 4.2380000000000001e-01 3.1671907169165731e+01 1.7362375423087424e+00 4.3676387973821198e+00 0 -1 1
1749 583 1 4.2380000000000001e-01 3.3003349302063654e+01 2.4898252552020042e+00 3.7974707175609232e+00 0 -1 1
1747 583 2 -8.4760000000000002e-01 3.2474974971476357e+01 2.2762179599041974e+00 4.6189660119353180e+00 0 -1 1
2878 960 2 -8.4760000000000002e-01 3.0891331367449830e+01 -3.1522901320313051e-01 3.4846106501558998e+00 1 0 4
2424 808 1 4.2380000000000001e-01 1.3257908347947399e+01 -2.3657478934248621e-01 5.1863447487254204e+00 0 3 -1
2879 960 1 4.2380000000000001e-01 3.1048720765404738e+01 -3.6955392499402462e-01 2.4987412216362417e+00 1 0 4
4125 1375 1 4.2380000000000001e-01 3.2968616169962857e+01 -3.5648599818950233e-01 1.6280040154975413e+00 0 0 0
1660 554 2 -8.4760000000000002e-01 3.5161361424044246e+00 7.4667969919152473e+00 2.2095580415613529e+00 1 -2 0
859 287 2 -8.4760000000000002e-01 1.1202995440045582e+00 6.5431369097569663e+00 1.6699127410689574e+00 2 0 2
727 243 2 -8.4760000000000002e-01 2.7287780389481417e+00 1.0053660410402554e+01 1.5088189600727846e+00 -2 3 1
729 243 1 4.2380000000000001e-01 3.1604228382097239e+00 9.2530263771549421e+00 1.9239452584014574e+00 -2 3 1
2486 829 1 4.2380000000000001e-01 2.4495588163209119e+00 9.5394480247296123e+00 4.9722179417614312e+00 3 1 3
2487 829 1 4.2380000000000001e-01 2.6251042901403667e+00 8.7118008143530048e+00 3.5758273079148939e+00 3 1 3
2485 829 2 -8.4760000000000002e-01 1.9652338785882248e+00 9.1335648152022522e+00 4.1973957323035451e+00 3 1 3
1662 554 1 4.2380000000000001e-01 2.6617827345974630e+00 7.3642502469974600e+00 1.7004143959512970e+00 1 -2 0
3531 1177 1 4.2380000000000001e-01 9.2640894537179475e-01 1.0158084622213588e+01 3.3361144544603540e+00 0 -3 1
1667 556 1 4.2380000000000001e-01 4.5103076867872778e+00 1.0931073598011787e+01 5.0613288500581337e+00 2 1 2
3529 1177 2 -8.4760000000000002e-01 3.6328428305469629e-01 1.0599605957331660e+01 2.6378228787959621e+00 0 -3 1
3530 1177 1 4.2380000000000001e-01 -4.1161082161439905e-01 1.1056367645140307e+01 3.0743633679698590e+00 0 -3 1
728 243 1 4.2380000000000001e-01 1.8274361412080999e+00 1.0195804155209439e+01 1.9175260782992876e+00 -2 3 1
1661 554 1 4.2380000000000001e-01 4.1921241630433279e+00 6.8181615759047887e+00 1.8603105196311938e+00 1 -2 0
860 287 1 4.2380000000000001e-01 1.0227649458502719e+00 6.6086498382876817e+00 2.6628162426223452e+00 2 0 2
615 205 1 4.2380000000000001e-01 8.7950537467704271e-01 7.6446021782344697e+00 -1.8832821662834104e-01 2 0 3
4357 1453 2 -8.4760000000000002e-01 6.2238631369861599e+00 6.2385940111052181e+00 2.9288803946147555e+00 -1 1 -1
895 299 2 -8.4760000000000002e-01 7.4434034090388801e+00 8.7858846683994756e+00 2.9542583179120889e+00 -1 0 0
1228 410 2 -8.4760000000000002e-01 6.7235625753933022e+00 6.2707960616646607e+00 4.7682897659246337e-01 -1 0 1
548 183 1 4.2380000000000001e-01 1.0101737636303326e+01 1.0171744217276496e+01 4.3826473337152239e+00 1 0 -2
547 183 2 -8.4760000000000002e-01 9.4852721413393368e+00 1.0880352999009475e+01 4.0398569868248133e+00 1 0 -2
549 183 1 4.2380000000000001e-01 9.9669709738120442e+00 1.1445935589650984e+01 3.3707196481849775e+00 1 0 -2
3398 1133 1 4.2380000000000001e-01 7.6925654648665507e+00 1.1425858989201055e+01 4.4397022704090876e+00 2 0 -3
2478 826 1 4.2380000000000001e-01 1.0255927367052250e+01 7.6201264863058285e+00 2.9114806035474512e+00 -1 2 -3
2477 826 1 4.2380000000000001e-01 9.4124532560728635e+00 6.5394085671377660e+00 3.7982297192165877e+00 -1 2 -3
2017 673 2 -8.4760000000000002e-01 1.0599188926292941e+01 8.1224054498000768e+00 1.2825217066852561e+00 0 3 -2
2476 826 2 -8.4760000000000002e-01 9.7423660322362569e+00 7.4823918469916428e+00 3.7582069609553193e+00 -1 2 -3
2019 673 1 4.2380000000000001e-01 1.1263795039458209e+01 8.5719349696566205e+00 6.8596177988888596e-01 0 3 -2
2018 673 1 4.2380000000000001e-01 9.9563684836028763e+00 7.5948773950124320e+00 7.2740230491916114e-01 0 3 -2
1230 410 1 4.2380000000000001e-01 6.0650776381033795e+00 6.8526771953426353e+00 -1.1251747578688853e-04 -1 0 1
3500 1167 1 4.2380000000000001e-01 1.0159769809638348e+01 1.3914649615076410e+01 2.3724170179636435e+00 0 1 2
897 299 1 4.2380000000000001e-01 8.3743112064979695e+00 8.4429547408165959e+00 3.0786455921367750e+00 -1 0 0
4358 1453 1 4.2380000000000001e-01 6.4768546125689861e+00 7.1583160520613669e+00 3.2284985427311450e+00 -1 1 -1
896 299 1 4.2380000000000001e-01 7.4532219498917218e+00 9.7856593735660056e+00 2.9583788214877238e+00 -1 0 0
1745 582 1 4.2380000000000001e-01 6.4779424755661150e+00 8.5813288856480359e+00 4.8456674338756480e+00 2 3 -4
4359 1453 1 4.2380000000000001e-01 6.2223995307213782e+00 6.2022121409475099e+00 1.9297130150535629e+00 -1 1 -1
891 297 1 4.2380000000000001e-01 4.7550096938566675e+00 1.7695969793332555e+01 1.2969960586953112e+01 -1 -2 1
2423 808 1 4.2380000000000001e-01 1.4887167007146777e+01 -3.2914685732032600e-01 5.2380114334337335e+00 0 3 -1
1229 410 1 4.2380000000000001e-01 7.6439365168157103e+00 6.4592929426678962e+00 1.3471335949103014e-01 -1 0 1
3168 1056 1 4.2380000000000001e-01 1.2397585751977580e+01 5.7543499676047674e+00 2.1418561145453454e+00 1 -1 0
3167 1056 1 4.2380000000000001e-01 1.1877548408210632e+01 5.0825104393183462e+00 3.5361002047183900e+00 1 -1 0
3745 1249 2 -8.4760000000000002e-01 1.3377719002323543e+01 8.9962998605778530e+00 2.8183974982496394e+00 1 0 2
3747 1249 1 4.2380000000000001e-01 1.2798719899029985e+01 9.2417971975406417e+00 2.0411243235423098e+00 1 0 2
3746 1249 1 4.2380000000000001e-01 1.3419885106374315e+01 8.0007986467131786e+00 2.9012410119020320e+00 1 0 2
3166 1056 2 -8.4760000000000002e-01 1.2522979849694067e+01 5.7313662937329219e+00 3.1335260769512043e+00 1 -1 0
2192 731 1 4.2380000000000001e-01 1.6988298450762290e+01 9.2511006017651667e+00 2.3355802709730886e+00 1 0 3
2191 731 2 -8.4760000000000002e-01 1.6174143867947699e+01 8.8591299461417741e+00 1.9075924020789743e+00 1 0 3
625 209 2 -8.4760000000000002e-01 1.5143971576419847e+01 1.1045207391871726e+01 8.4319154878312719e-01 1 2 0
3040 1014 2 -8.4760000000000002e-01 1.4915835015900377e+01 6.0934889532199898e+00 4.1911501962734885e+00 0 -2 -2
3041 1014 1 4.2380000000000001e-01 1.4002261530937714e+01 6.1390801063397689e+00 3.7874569698807159e+00 0 -2 -2
626 209 1 4.2380000000000001e-01 1.5647174630289765e+01 1.0271744107929296e+01 1.2281629690706573e+00 1 2 0
3042 1014 1 4.2380000000000001e-01 1.5066005615003171e+01 6.8966423653496705e+00 4.7673920536078738e+00 0 -2 -2
2193 731 1 4.2380000000000001e-01 1.5393875399558130e+01 8.9552434112703452e+00 2.5253344892017298e+00 1 0 3
1177 393 2 -8.4760000000000002e-01 1.5615775845711266e+01 8.6019711591625310e+00 5.7580585164230493e+00 2 1 0
627 209 1 4.2380000000000001e-01 1.4913260355512007e+01 1.0851396104804298e+01 -1.1015591760246873e-01 1 2 0
1730 577 1 4.2380000000000001e-01 1.4171549614328960e+01 1.1032420512190084e+01 2.9449298414192753e+00 0 2 0
1729 577 2 -8.4760000000000002e-01 1.4065826647698566e+01 1.1623290033153241e+01 3.7445281979415634e+00 0 2 0
1731 577 1 4.2380000000000001e-01 1.3193704827276214e+01 1.1425841795794836e+01 4.1918309598374988e+00 0 2 0
4205 1402 1 4.2380000000000001e-01 1.7150203527114215e+01 1.1294590509734315e+01 4.4987702376119785e+00 -1 1 0
4204 1402 2 -8.4760000000000002e-01 1.7109310658301062e+01 1.0440896349245346e+01 3.9799298338820401e+00 -1 1 0
4206 1402 1 4.2380000000000001e-01 1.7920279439162947e+01 9.8909237628527169e+00 4.1787294599790110e+00 -1 1 0
1179 393 1 4.2380000000000001e-01 1.5609018391687478e+01 9.3610567919028114e+00 5.1073622971257198e+00 2 1 0
1421 474 1 4.2380000000000001e-01 1.2855844322126973e+01 5.2220173373892544e+00 -1.6002274132899014e-01 -2 1 0
597 199 1 4.2380000000000001e-01 1.5549408148607483e+01 6.4142596376142640e+00 1.7638905997785109e+01 -2 -1 1
379 127 2 -8.4760000000000002e-01 1.5335844400304408e+01 6.4858270945850380e+00 4.5965955400965841e-01 0 -2 3
381 127 1 4.2380000000000001e-01 1.6015890382149092e+01 7.1169358156013374e+00 8.3235317518650920e-01 0 -2 3
2617 873 2 -8.4760000000000002e-01 1.9435850742803595e+01 6.7246034547733773e+00 3.9964424535642378e+00 -1 1 4
2619 873 1 4.2380000000000001e-01 1.8668957088418164e+01 6.0987090047948884e+00 4.1371256568334038e+00 -1 1 4
2200 734 2 -8.4760000000000002e-01 2.2532763371460067e+01 6.7014724479285608e+00 1.1633296768344246e+00 -1 -3 4
2618 873 1 4.2380000000000001e-01 2.0274530084170006e+01 6.3081211043937744e+00 4.3469005774144387e+00 -1 1 4
2202 734 1 4.2380000000000001e-01 2.1538709849638064e+01 6.7036402883319850e+00 1.2706333965058894e+00 -1 -3 4
2338 780 2 -8.4760000000000002e-01 2.0763107277897756e+01 1.0504672408421188e+01 2.4869174334317135e-01 1 2 -1
3146 1049 1 4.2380000000000001e-01 1.8691702337145379e+01 1.1716809455433358e+01 3.7804509898824010e+00 -3 2 3
3799 1267 2 -8.4760000000000002e-01 1.9796653735982979e+01 8.2303226391462374e+00 1.7245782463217862e+00 1 0 4
3800 1267 1 4.2380000000000001e-01 1.9526031887510388e+01 7.7476486118159791e+00 2.5573156454288934e+00 1 0 4
3801 1267 1 4.2380000000000001e-01 2.0713362758721104e+01 8.6114050451624671e+00 1.8432471206978351e+00 1 0 4
1471 491 2 -8.4760000000000002e-01 2.4168280631623336e+01 9.4261494294554922e+00 1.3819220384383224e+00 2 3 1
1472 491 1 4.2380000000000001e-01 2.3888094585170624e+01 1.0238503608191271e+01 8.7080673342341908e-01 2 3 1
1473 491 1 4.2380000000000001e-01 2.3463574520269326e+01 8.7215958259526225e+00 1.3003395771702246e+00 2 3 1
930 310 1 4.2380000000000001e-01 1.9407333488777574e+01 7.8168762217577505e+00 -3.8370504961739771e-01 2 -2 0
2339 780 1 4.2380000000000001e-01 1.9891888479314972e+01 1.0483993137980832e+01 7.3880588594766783e-01 1 2 -1
2697 899 1 4.2380000000000001e-01 1.9319449554963189e+01 8.3893034882275153e+00 4.3007832377666588e+00 1 -3 -1
2696 899 1 4.2380000000000001e-01 2.0429861343413513e+01 9.5797873929375896e+00 4.1764574917351496e+00 1 -3 -1
3646 1216 2 -8.4760000000000002e-01 2.1923142223476983e+01 1.0003038051225934e+01 3.4588072152266163e+00 -2 1 0
3648 1216 1 4.2380000000000001e-01 2.2686616212817363e+01 9.7847745530442456e+00 4.0663682533847165e+00 -2 1 0
3647 1216 1 4.2380000000000001e-01 2.2104150787913635e+01 1.0869700156692277e+01 2.9942700525903665e+00 -2 1 0
2260 754 2 -8.4760000000000002e-01 2.6439457295440494e+01 5.5879552734811941e+00 2.6183159898366206e+00 1 0 -2
91 31 2 -8.4760000000000002e-01 2.5285195055675281e+01 9.7053098355689915e+00 3.9503578086064408e+00 1 -1 2
92 31 1 4.2380000000000001e-01 2.4907729302140059e+01 9.7267362695111608e+00 3.0247650290953603e+00 1 -1 2
2261 754 1 4.2380000000000001e-01 2.6338360486591448e+01 6.5779461000348505e+00 2.5215744338506241e+00 1 0 -2
2823 941 1 4.2380000000000001e-01 2.6894437553275697e+01 9.0275447294148545e+00 5.0995868461526603e+00 -2 1 -1
2130 710 1 4.2380000000000001e-01 2.9371792156643785e+01 7.1279704688944188e+00 1.2581101391300265e+00 1 0 1
93 31 1 4.2380000000000001e-01 2.4735289526198976e+01 9.0952041642409895e+00 4.5204773952023389e+00 1 -1 2
2821 941 2 -8.4760000000000002e-01 2.7812132135563399e+01 8.7105613736306164e+00 5.3383748967010209e+00 -2 1 -1
2822 941 1 4.2380000000000001e-01 2.8490733267059369e+01 9.2435174457370852e+00 4.8332811012339763e+00 -2 1 -1
1365 455 1 4.2380000000000001e-01 2.7403191442576652e+01 1.0792054108514888e+01 1.5317437944824381e+00 2 0 1
1363 455 2 -8.4760000000000002e-01 2.7734136388383472e+01 1.0223389226868617e+01 2.2845767199383897e+00 2 0 1
1364 455 1 4.2380000000000001e-01 2.6971225854870998e+01 9.7058858145314133e+00 2.6716416386079769e+00 2 0 1
2128 710 2 -8.4760000000000002e-01 2.8507195598117850e+01 6.7640911423105594e+00 9.1209530848329945e-01 1 0 1
2129 710 1 4.2380000000000001e-01 2.8411969433131908e+01 5.8088637250417134e+00 1.1916199036003405e+00 1 0 1
3393 1131 1 4.2380000000000001e-01 2.9830686527832402e+01 1.0302033478138895e+01 3.8019788473294769e+00 0 0 -1
3391 1131 2 -8.4760000000000002e-01 3.0319037049319359e+01 1.0148788303190633e+01 4.6608683395606603e+00 0 0 -1
3592 1198 2 -8.4760000000000002e-01 2.6431764934726107e+01 1.0915086885563293e+01 -6.7087322599829635e-02 2 0 0
3515 1172 1 4.2380000000000001e-01 2.5164744217723321e+01 6.2172826801521222e+00 5.2840798049383064e+00 -3 0 6
2288 763 1 4.2380000000000001e-01 2.7254793519326121e+01 1.5538591108612931e+00 -3.3967935860374388e-02 -1 3 0
3275 1092 1 4.2380000000000001e-01 3.3676330333296008e+01 6.1021334526571271e+00 3.5023478477061181e+00 -1 0 3
915 305 1 4.2380000000000001e-01 3.0772335691064033e+01 6.1681763876575184e+00 5.6787651664388106e-01 1 -2 2
3716 1239 1 4.2380000000000001e-01 -4.6622962008702867e-01 1.0301563537170823e+01 7.5663671122749121e-01 0 -1 -2
4384 1462 2 -8.4760000000000002e-01 3.1068862004825856e+01 7.3501622534908551e+00 2.1019641639718576e+00 -2 -1 1
109 37 2 -8.4760000000000002e-01 3.3510369674110223e+01 7.7511171905154583e+00 1.0850208533211267e+00 -1 0 -3
110 37 1 4.2380000000000001e-01 3.3790053518061299e+01 7.9419627644942246e+00 1.4426760212586032e-01 -1 0 -3
1851 617 1 4.2380000000000001e-01 3.5372172560078084e+01 7.8845835555905168e+00 4.3361430542046282e+00 1 0 2
1849 617 2 -8.4760000000000002e-01 3.5162133050803817e+01 8.4064213961111260e+00 3.5095658541175982e+00 1 0 2
1850 617 1 4.2380000000000001e-01 3.5836079462838839e+01 9.1361751150462922e+00 3.3959133743780181e+00 1 0 2
4385 1462 1 4.2380000000000001e-01 3.1084374870625581e+01 7.0212047862569396e+00 3.0460020960095493e+00 -2 -1 1
4386 1462 1 4.2380000000000001e-01 3.1998751313228997e+01 7.3526336848332345e+00 1.7345928956622489e+00 -2 -1 1
924 308 1 4.2380000000000001e-01 3.3241703921198791e+01 1.0549669572614835e+01 2.8882733020850067e+00 -3 1 1
923 308 1 4.2380000000000001e-01 3.4185309279834584e+01 1.1460897843067142e+01 3.8603825663727527e+00 -3 1 1
922 308 2 -8.4760000000000002e-01 3.3754439364711303e+01 1.1405026596322612e+01 2.9598876435540649e+00 -3 1 1
3392 1131 1 4.2380000000000001e-01 3.1289642162574221e+01 1.0002289121592002e+01 4.4708022076770488e+00 0 0 -1
1474 492 2 -8.4760000000000002e-01 3.1316189134461101e+01 6.3170319482201389e+00 4.9100528767481944e+00 -2 -3 -1
2102 701 1 4.2380000000000001e-01 3.1965993534731123e+01 8.2828230711855646e+00 4.3918491673556659e+00 2 -1 0
111 37 1 4.2380000000000001e-01 3.4128399894346757e+01 8.2175733079905520e+00 1.7175711283150537e+00 -1 0 -3
2101 701 2 -8.4760000000000002e-01 3.2527357953271405e+01 9.0549143791544946e+00 4.0945165979897631e+00 2 -1 0
3715 1239 2 -8.4760000000000002e-01 3.5654186517725819e+01 1.0261735448999133e+01 -1.2222806424987570e-01 -1 -1 -2
3869 1290 1 4.2380000000000001e-01 2.1206569730468161e+01 -4.2917182286399180e-02 1.1891983017664913e+01 0 0 3
883 295 2 -8.4760000000000002e-01 6.5289876654738399e-01 1.6477806476856465e+01 -1.2293562855415213e-01 2 -1 1
3774 1258 1 4.2380000000000001e-01 3.4985107954228489e-03 1.2619057406505172e+01 5.1345644964254991e+00 -2 1 -3
4102 1368 2 -8.4760000000000002e-01 3.3974437827804795e+00 1.6117016172648501e+01 2.8507852449409965e+00 4 1 0
1148 383 1 4.2380000000000001e-01 3.5584490860055780e+01 1.5695408649063200e+01 4.8791721612766663e+00 -1 -1 -2
115 39 2 -8.4760000000000002e-01 2.2146825358598075e+00 1.4203122296671687e+01 1.4281048454446501e+00 0 3 -3
117 39 1 4.2380000000000001e-01 2.5511584205394930e+00 1.4973645960863037e+01 1.9691579489913660e+00 0 3 -3
116 39 1 4.2380000000000001e-01 1.3668403394783646e+00 1.3858343814971663e+01 1.8305386768304883e+00 0 3 -3
4078 1360 2 -8.4760000000000002e-01 3.9375246902442962e+00 1.3457503025226089e+01 3.9127694356108593e+00 -1 0 3
3641 1214 1 4.2380000000000001e-01 3.4705111651966867e+00 1.2984122611609276e+01 3.5895163841775579e-01 -1 0 1
4079 1360 1 4.2380000000000001e-01 3.6071852813582996e+00 1.4315866235235532e+01 3.5206596548154074e+00 -1 0 3
4103 1368 1 4.2380000000000001e-01 3.2006761364615386e+00 1.7045199469743366e+01 3.1660944725290232e+00 4 1 0
4080 1360 1 4.2380000000000001e-01 4.7461285068239816e+00 1.3151195580524675e+01 3.4107760756585259e+00 -1 0 3
4104 1368 1 4.2380000000000001e-01 4.3394597935900387e+00 1.6070454384400531e+01 2.5189722731963800e+00 4 1 0
885 295 1 4.2380000000000001e-01 1.0903952451010752e+00 1.5668996946821128e+01 2.6960164672620202e-01 2 -1 1
2870 957 1 4.2380000000000001e-01 2.2078280667291095e+00 1.3011539856834800e+01 5.0044492226408828e+00 -3 -1 1
3906 1302 1 4.2380000000000001e-01 8.0936931579279747e-01 1.6586034015047002e+01 5.1692334583449044e+00 -2 -2 0
3616 1206 2 -8.4760000000000002e-01 1.8034672725412758e+01 3.2090034902059865e+00 1.7447045544002112e+01 4 0 -3
3642 1214 1 4.2380000000000001e-01 3.5752941597247707e+00 1.1437633330022958e+01 8.7189939223699575e-01 -1 0 1
3640 1214 2 -8.4760000000000002e-01 4.0481675824556236e+00 1.2168316383198460e+01 3.7980766745983585e-01 -1 0 1