LAMMPS data file via write_data, version 7 Aug 2019, timestep = 2000157

4500 atoms
2 atom types
3000 bonds
1 bond types
1500 angles
1 angle types

-1.6158736698173541e+00 3.7146873669827471e+01 xlo xhi
-1.6398869933071083e+00 3.7196886993301050e+01 ylo yhi
-1.6603995439188886e+00 3.7164399543914186e+01 zlo zhi

Masses

1 1.00794
2 15.9994

Pair Coeffs # lj/cut/coul/long/gpu

1 0 0
2 0.155394 3.16556

Bond Coeffs # harmonic

1 5000 1

Angle Coeffs # harmonic

1 500 109.47

Atoms # full

349 117 2 -8.4760000000000002e-01 -8.9335401008651372e-01 4.0074629622969038e-02 2.3080703944902319e+00 0 6 0
350 117 1 4.2380000000000001e-01 7.3688557537155530e-02 -1.7532020628302813e-01 2.1712597920731622e+00 0 6 0
2821 941 2 -8.4760000000000002e-01 2.7156968318995895e+00 1.7899747803475745e+00 3.4076747488279304e+00 -1 -3 2
2822 941 1 4.2380000000000001e-01 2.6420958938919981e+00 1.1082312172462254e+00 2.6795996192760239e+00 -1 -3 2
351 117 1 4.2380000000000001e-01 -1.0327562111978776e+00 3.6868744666865627e-01 3.2423423268235299e+00 0 6 0
3007 1003 2 -8.4760000000000002e-01 3.8767615218247506e+00 4.4111269995763083e+00 6.2938694777514170e-01 3 -1 -3
1014 338 1 4.2380000000000001e-01 2.9724965993807677e+00 -3.5436193332077592e-01 1.4295877311249976e+00 2 4 1
1012 338 2 -8.4760000000000002e-01 2.1525866620532512e+00 -3.1599409125022460e-01 2.0010414028583567e+00 2 4 1
2745 915 1 4.2380000000000001e-01 2.9756740017134957e+00 3.0570129196941211e+00 -6.5768039223751718e-01 0 0 3
458 153 1 4.2380000000000001e-01 -1.2043561741842950e+00 -9.4915777218435027e-01 9.8886531912722608e-01 0 -1 -2
1013 338 1 4.2380000000000001e-01 2.0222779683594876e+00 -1.1967465340536534e+00 2.4566491431600728e+00 2 4 1
161 54 1 4.2380000000000001e-01 9.2457869087276823e-01 1.3689984937395243e+00 4.2045991657875987e+00 -3 4 0
2569 857 2 -8.4760000000000002e-01 1.2724465903838342e+00 4.3523054448324281e+00 3.5656590829337755e+00 5 1 -2
2571 857 1 4.2380000000000001e-01 1.3829724315007335e+00 3.5143177789923152e+00 4.1003026567399274e+00 5 1 -2
4309 1437 2 -8.4760000000000002e-01 2.2238135263086711e+01 1.7577683236520983e+01 1.5758115917847643e+01 1 -3 0
3022 1008 2 -8.4760000000000002e-01 -8.2732478538930954e-02 1.6787552637707790e+01 -9.5949471134321707e-01 3 1 0
2823 941 1 4.2380000000000001e-01 3.5367541544946040e+00 2.3429200319368322e+00 3.2648459742305693e+00 -1 -3 2
1408 470 2 -8.4760000000000002e-01 7.6535902932166415e+00 3.5319704668301428e+00 3.2127762052708615e+00 1 -3 -1
1084 362 2 -8.4760000000000002e-01 4.9499578319441211e+00 -4.7098634254880167e-01 1.7619486823080055e-01 -3 1 -2
3009 1003 1 4.2380000000000001e-01 4.5730468592934477e+00 4.0205423957191853e+00 1.2318094874046821e+00 3 -1 -3
1085 362 1 4.2380000000000001e-01 5.0990031827053013e+00 -3.1546853081787507e-01 -8.0047439158506406e-01 -3 1 -2
1409 470 1 4.2380000000000001e-01 8.1214386158784730e+00 3.0486730852675832e+00 2.4726244123971464e+00 1 -3 -1
718 240 2 -8.4760000000000002e-01 5.5050547539654309e+00 2.5227217806827875e+00 2.0037984014411454e+00 0 0 2
720 240 1 4.2380000000000001e-01 5.8611944079408964e+00 1.7585970048513322e+00 1.4656898280675361e+00 0 0 2
719 240 1 4.2380000000000001e-01 6.1903180307444634e+00 2.8057062130827042e+00 2.6750793193810258e+00 0 0 2
896 299 1 4.2380000000000001e-01 8.8465866866315341e+00 -5.1781719447782093e-01 9.9705952110627605e-01 0 1 0
897 299 1 4.2380000000000001e-01 7.9665434121500880e+00 5.6193184676777719e-01 1.8497306857051505e+00 0 1 0
895 299 2 -8.4760000000000002e-01 8.0573664296416609e+00 -4.0238026462422116e-01 1.6004578873522108e+00 0 1 0
2423 808 1 4.2380000000000001e-01 3.3783114717057283e-01 -1.1003818506857721e+00 7.3435942767041933e+00 4 4 5
3008 1003 1 4.2380000000000001e-01 4.2863343429795471e+00 5.1318477754196783e+00 6.9838690981853802e-02 3 -1 -3
2501 834 1 4.2380000000000001e-01 8.8306059078628483e+00 5.8182987089526987e+00 1.4105039537856316e+00 3 2 0
1086 362 1 4.2380000000000001e-01 5.6762066519629508e+00 -1.0575976337892457e+00 5.3498900997219856e-01 -3 1 -2
3856 1286 2 -8.4760000000000002e-01 8.8848705059862496e+00 2.3607116690527565e+00 8.0675382961318443e-01 0 3 6
3857 1286 1 4.2380000000000001e-01 8.2369212601141353e+00 2.4940693546995760e+00 5.6646605306689857e-02 0 3 6
1171 391 2 -8.4760000000000002e-01 7.2372358354358752e+00 3.0585199139703105e+00 -1.1632413829021955e+00 1 -3 -1
3858 1286 1 4.2380000000000001e-01 9.5907688607486552e+00 3.0681215249217084e+00 7.6723950927152584e-01 0 3 6
3522 1174 1 4.2380000000000001e-01 1.0709675791565955e+01 3.9344799370512993e+00 4.2631645885824856e+00 2 -1 1
3520 1174 2 -8.4760000000000002e-01 1.0368617484369361e+01 3.7601395457989524e+00 5.1870521112109476e+00 2 -1 1
3068 1023 1 4.2380000000000001e-01 1.0095907719897330e+01 1.3209800000086811e+00 3.7230426275074695e+00 1 1 -2
3067 1023 2 -8.4760000000000002e-01 1.0725248345142377e+01 8.6258163011594524e-01 4.3508040805674160e+00 1 1 -2
3069 1023 1 4.2380000000000001e-01 1.1217688261210414e+01 1.5473609706926479e+00 4.8882643406381439e+00 1 1 -2
1034 345 1 4.2380000000000001e-01 1.3510154838549367e+01 3.4900448076169202e+00 -1.5454608676827220e-01 1 -1 -3
191 64 1 4.2380000000000001e-01 1.2978837501786876e+01 -1.1842836613752796e+00 4.8153024415670158e+00 -6 2 -4
2500 834 2 -8.4760000000000002e-01 9.7834511603874894e+00 5.5708752537946946e+00 1.2340041211186614e+00 3 2 0
1935 645 1 4.2380000000000001e-01 2.7093108920607261e+01 1.2314916955479140e+01 -1.6136510694352264e+00 4 0 0
3506 1169 1 4.2380000000000001e-01 5.9790487161711452e+00 6.2821533691866049e+00 -1.2098694988075755e+00 4 0 0
192 64 1 4.2380000000000001e-01 1.1354853378219023e+01 -1.0252696245906567e+00 4.8843798573708082e+00 -6 2 -4
3909 1303 1 4.2380000000000001e-01 3.3278631947219750e+01 1.0617920703497219e+01 -3.9251909296759990e-01 3 -2 5
510 170 1 4.2380000000000001e-01 1.2642013454601603e+01 3.6966131064372032e-01 -4.4273981460933687e-01 4 -1 2
509 170 1 4.2380000000000001e-01 1.4172907489444350e+01 4.4624506309533984e-01 1.2106919930852222e-01 4 -1 2
1033 345 2 -8.4760000000000002e-01 1.3167064425395763e+01 3.8416006995241689e+00 -1.0257411813678332e+00 1 -1 -3
508 170 2 -8.4760000000000002e-01 1.3280191597795886e+01 1.0914131954390838e-02 2.3866499673871666e-01 4 -1 2
190 64 2 -8.4760000000000002e-01 1.2142733255579419e+01 -1.5234638877790698e+00 5.2467760920452573e+00 -6 2 -4
1035 345 1 4.2380000000000001e-01 1.2410539393096725e+01 3.2687631253921063e+00 -1.3416696414901303e+00 1 -1 -3
547 183 2 -8.4760000000000002e-01 2.7170865027271073e+01 -1.6361425981395286e+00 1.3758298467612969e+01 -3 1 -6
3292 1098 2 -8.4760000000000002e-01 1.6697595521512028e+01 5.2983300093543955e+00 -6.4779982918061263e-01 -3 -1 0
1798 600 2 -8.4760000000000002e-01 1.5420217364548098e+01 1.2839360892215765e+00 -1.2640588952428433e-01 -5 -2 2
3573 1191 1 4.2380000000000001e-01 1.7275315563465863e+01 4.1098900822141990e+00 5.3682828965884344e-01 -4 5 1
1799 600 1 4.2380000000000001e-01 1.6042108677793482e+01 6.3763029611405031e-01 -5.6892506004024845e-01 -5 -2 2
4201 1401 2 -8.4760000000000002e-01 1.5926689625965285e+01 2.2892374384209528e+00 3.1505683706115715e+00 -3 -2 4
4202 1401 1 4.2380000000000001e-01 1.5806599002662750e+01 2.8838141514159892e+00 3.9457665210206612e+00 -3 -2 4
3294 1098 1 4.2380000000000001e-01 1.5710821093897856e+01 5.2310384700195893e+00 -7.9623062055974625e-01 -3 -1 0
1800 600 1 4.2380000000000001e-01 1.5678186386278629e+01 2.2178582267334011e+00 -3.7444743738337150e-01 -5 -2 2
1789 597 2 -8.4760000000000002e-01 1.9885487801782418e+01 2.0080957901422987e+00 9.9384837541336735e-01 -2 0 0
3571 1191 2 -8.4760000000000002e-01 1.7534742096054384e+01 3.3956776193650020e+00 1.1871229686380835e+00 -4 5 1
1790 597 1 4.2380000000000001e-01 1.9997899675268584e+01 1.0838634138881207e+00 6.2855378073079171e-01 -2 0 0
3572 1191 1 4.2380000000000001e-01 1.6762170401020160e+01 3.1977469130524776e+00 1.7906464487463754e+00 -4 5 1
4233 1411 1 4.2380000000000001e-01 2.0268259603667236e+01 -1.3033016788459206e-01 -1.5624077700115557e+00 3 -4 -3
4203 1401 1 4.2380000000000001e-01 1.6792952720448611e+01 1.7958798021608295e+00 3.2310029309932151e+00 -3 -2 4
1001 334 1 4.2380000000000001e-01 1.7652876475567471e+01 6.2360839950381859e+00 3.8596891188667746e+00 -4 2 6
1791 597 1 4.2380000000000001e-01 1.8934790413996573e+01 2.2976250159899720e+00 8.8146181976903915e-01 -2 0 0
1346 449 1 4.2380000000000001e-01 1.7766359024910042e+01 -3.7092142652907323e-01 -4.9972688294911372e-01 -1 2 -2
3675 1225 1 4.2380000000000001e-01 2.0007998062875870e+01 3.1554603581707124e+00 2.5030388819625493e+00 -2 0 -2
4232 1411 1 4.2380000000000001e-01 2.0176929072335177e+01 -1.1683211333123060e+00 -3.0478504461237477e-01 3 -4 -3
1345 449 2 -8.4760000000000002e-01 1.6935838502059450e+01 -5.1679284362894307e-01 -1.0375382969488280e+00 -1 2 -2
1223 408 1 4.2380000000000001e-01 1.4543684156285615e+01 -7.9636787183325897e-02 3.3843184721532751e+00 1 -3 1
4231 1411 2 -8.4760000000000002e-01 1.9931880026565835e+01 -2.5437912852439659e-01 -6.2873555269955128e-01 3 -4 -3
1222 408 2 -8.4760000000000002e-01 1.4468487256092647e+01 -8.9882696794664507e-01 3.9531387349701035e+00 1 -3 1
2209 737 2 -8.4760000000000002e-01 2.2131656314186696e+01 3.6699687477943224e+00 4.8258772743331102e-01 0 1 -1
2211 737 1 4.2380000000000001e-01 2.1591880935671544e+01 2.9648278516877156e+00 9.4269962927836515e-01 0 1 -1
2210 737 1 4.2380000000000001e-01 2.2393335763111157e+01 4.3736507433301410e+00 1.1433744916857154e+00 0 1 -1
4310 1437 1 4.2380000000000001e-01 2.2922677722929137e+01 1.6849476741021647e+01 1.5795535731040136e+01 1 -3 0
2198 733 1 4.2380000000000001e-01 2.3248534816551803e+01 4.3147337331650784e+00 -1.0069715835373776e+00 0 -1 0
3804 1268 1 4.2380000000000001e-01 2.5142087816685716e+01 1.7624262200977537e+01 1.7524451890499449e+01 0 1 -5
4264 1422 2 -8.4760000000000002e-01 2.2162559982064799e+01 5.4333085136159145e+00 2.6565026930373978e+00 -2 3 5
4265 1422 1 4.2380000000000001e-01 2.1566273558193025e+01 4.7268169263353110e+00 3.0380725027364424e+00 -2 3 5
3673 1225 2 -8.4760000000000002e-01 2.0421550017029737e+01 3.4820826223210153e+00 3.3530841871034625e+00 -2 0 -2
3814 1272 2 -8.4760000000000002e-01 2.3834940664487213e+01 3.7626609698397422e+00 4.7520553582347338e+00 1 1 5
3815 1272 1 4.2380000000000001e-01 2.4482241915999129e+01 4.4506384154909737e+00 5.0806455719370218e+00 1 1 5
3616 1206 2 -8.4760000000000002e-01 2.5124451099440385e+01 2.0903137538712504e+00 2.6530946074428141e-01 -1 1 1
3370 1124 2 -8.4760000000000002e-01 2.1898215226949045e+01 -1.2351797676657450e+00 4.4317302718731648e+00 -4 -1 -1
3618 1206 1 4.2380000000000001e-01 2.4702934836354853e+01 2.9539746151127151e+00 -1.1632979848101632e-02 -1 1 1
3617 1206 1 4.2380000000000001e-01 2.4511789500874976e+01 1.6054772085523190e+00 8.8969919994391944e-01 -1 1 1
2791 931 2 -8.4760000000000002e-01 2.7955149528337756e+01 -1.4533338045937905e+00 6.6748940860646666e+00 -1 0 0
996 332 1 4.2380000000000001e-01 2.3909321903939457e+01 -1.2475665191515786e+00 -1.0673457470059904e+00 -4 -5 -3
3056 1019 1 4.2380000000000001e-01 2.0607990189182164e+01 3.3155371352633587e+00 -1.1717690614551821e+00 -4 0 3
1808 603 1 4.2380000000000001e-01 1.3950237746702012e+01 1.7449408559514758e+01 5.4368944455232482e-01 -1 -3 0
4043 1348 1 4.2380000000000001e-01 2.7659128377633110e+01 3.5553003081420975e-01 1.3616416661346218e+00 1 5 2
4042 1348 2 -8.4760000000000002e-01 2.7948247736257333e+01 4.2578945796366030e-01 4.0678127333403058e-01 1 5 2
1474 492 2 -8.4760000000000002e-01 3.1548925495453737e+01 3.3357321052936433e+00 4.4738051238684511e+00 -1 3 0
4165 1389 2 -8.4760000000000002e-01 2.7352664562664049e+01 -1.1913003224797403e-01 2.9502954812202136e+00 1 5 0
4167 1389 1 4.2380000000000001e-01 2.7294343986356221e+01 -1.1169315671298383e+00 2.9859899700697197e+00 1 5 0
4166 1389 1 4.2380000000000001e-01 2.7330754466590353e+01 2.4954227020584918e-01 3.8797490793829770e+00 1 5 0
1475 492 1 4.2380000000000001e-01 3.1912550865060247e+01 2.8346274264486100e+00 3.6883409957145536e+00 -1 3 0
3492 1164 1 4.2380000000000001e-01 3.0055847615840992e+01 4.0782781049844621e+00 4.9101504372490279e+00 -1 -4 0
1665 555 1 4.2380000000000001e-01 1.0534294550735202e+01 1.6897335292565106e+01 1.1071291399719408e+01 1 -2 4
282 94 1 4.2380000000000001e-01 2.9299015256628270e+01 2.0268177546340387e+00 1.0787335426483353e+00 2 0 1
2808 936 1 4.2380000000000001e-01 3.1842288699155112e+01 5.2532561817099532e-01 3.5500354706992594e+00 1 3 5
4044 1348 1 4.2380000000000001e-01 2.7211814709579031e+01 8.3048823968966090e-01 -1.3559177707683578e-01 1 5 2
969 323 1 4.2380000000000001e-01 3.0161870195452643e+01 -1.4623657483828965e+00 5.1058273506975524e+00 1 -2 -1
280 94 2 -8.4760000000000002e-01 3.0163957273704920e+01 1.6749799928196549e+00 7.2044825736090212e-01 2 0 1
281 94 1 4.2380000000000001e-01 3.0005435108447994e+01 1.2408740253617152e+00 -1.6651552317045359e-01 2 0 1
2807 936 1 4.2380000000000001e-01 3.1630004423109170e+01 9.7140402388918234e-01 1.9933299744210804e+00 1 3 5
2806 936 2 -8.4760000000000002e-01 3.2307079969600572e+01 7.2739154669296013e-01 2.6878161414019255e+00 1 3 5
1756 586 2 -8.4760000000000002e-01 3.6343507894185130e+01 1.5440123245164612e+00 4.3464483385350672e-01 -5 2 1
1757 586 1 4.2380000000000001e-01 3.6906474659807998e+01 1.2086310125195872e+00 1.1902051506980893e+00 -5 2 1
3653 1218 1 4.2380000000000001e-01 3.2628886147994130e+01 3.3064596444497409e+00 -4.5320498820152899e-01 1 0 -1
1476 492 1 4.2380000000000001e-01 3.2277315167165192e+01 3.4791050027775023e+00 5.1440117904046350e+00 -1 3 0
4059 1353 1 4.2380000000000001e-01 3.4080865762355813e+01 5.0970024097549445e+00 -2.0524185381172733e-01 4 1 -2
3754 1252 2 -8.4760000000000002e-01 3.3759364649770923e+01 7.1208679907417061e-01 1.8625399164906598e-01 1 4 -1
1758 586 1 4.2380000000000001e-01 3.5431977013828110e+01 1.1363981521508846e+00 4.9162021679037160e-01 -5 2 1
634 212 2 -8.4760000000000002e-01 3.5846918880815082e+01 4.4290750874848666e+00 1.5478688682557316e+00 -1 3 -4
3755 1252 1 4.2380000000000001e-01 3.3101257405936430e+01 6.1559047615975349e-01 -5.6064978162813328e-01 1 4 -1
635 212 1 4.2380000000000001e-01 3.5715164311539866e+01 3.4725198893766001e+00 1.2872424027177698e+00 -1 3 -4
4349 1450 1 4.2380000000000001e-01 3.4947102414720881e+01 2.3508407871096635e+00 4.4135041611873636e+00 -2 3 3
4348 1450 2 -8.4760000000000002e-01 3.4077523537093910e+01 1.8624494337536119e+00 4.4882686943801691e+00 -2 3 3
4350 1450 1 4.2380000000000001e-01 3.3756258566194816e+01 1.6119668401425344e+00 3.5748515735081163e+00 -2 3 3
3652 1218 2 -8.4760000000000002e-01 3.3602229507040867e+01 3.5351956395032484e+00 -4.2940327961426883e-01 1 0 -1
1389 463 1 4.2380000000000001e-01 3.5340479132182338e+01 4.5859996558754323e+00 -1.4637571269886176e+00 3 2 4
3654 1218 1 4.2380000000000001e-01 3.4109786016429588e+01 2.7882622182104022e+00 4.3484066802412791e-04 1 0 -1
3756 1252 1 4.2380000000000001e-01 3.3327148501146546e+01 4.4557100229705204e-01 1.0479045440809607e+00 1 4 -1
2098 700 2 -8.4760000000000002e-01 9.6166416628290197e-01 9.1654652639599572e+00 4.4640815971037773e+00 2 -4 0
2583 861 1 4.2380000000000001e-01 2.3910313654712914e+00 8.4875897560617108e+00 2.9310779809633889e+00 4 0 2
2581 861 2 -8.4760000000000002e-01 3.0336440873925667e+00 8.2914718622482475e+00 2.1902202567279017e+00 4 0 2
2899 967 2 -8.4760000000000002e-01 1.9818734711447883e+00 6.8997089038581620e+00 -7.9879887778128011e-01 -2 -6 6
2100 700 1 4.2380000000000001e-01 1.9433263504844422e-02 8.9952108576558274e+00 4.7530414678711930e+00 2 -4 0
2900 967 1 4.2380000000000001e-01 1.9371063749703601e+00 7.8987659612153696e+00 -7.8602633362316676e-01 -2 -6 6
2099 700 1 4.2380000000000001e-01 1.3358945203810819e+00 9.9339724649121983e+00 4.9833423564212120e+00 2 -4 0
1703 568 1 4.2380000000000001e-01 -1.6596290921166568e-01 5.9960724894285313e+00 1.2063628835069506e+00 0 1 0
1702 568 2 -8.4760000000000002e-01 8.1324433942918484e-01 6.0273819645060485e+00 1.4074996190244131e+00 0 1 0
1704 568 1 4.2380000000000001e-01 1.0082771310241840e+00 5.4556725913056638e+00 2.2046162404672511e+00 0 1 0
2901 967 1 4.2380000000000001e-01 1.6799068944173023e+00 6.5411606602316237e+00 8.4683973812086366e-02 -2 -6 6
4078 1360 2 -8.4760000000000002e-01 3.4896790938658633e+00 9.6664293064443463e+00 -1.0631392700263143e-01 -2 3 2
4366 1456 2 -8.4760000000000002e-01 -7.3006293818199719e-01 8.3041399063899810e+00 7.7741595432418498e-01 -3 2 0
4367 1456 1 4.2380000000000001e-01 4.9871884912582098e-02 7.9557449166712040e+00 1.2976140710296935e+00 -3 2 0
4080 1360 1 4.2380000000000001e-01 3.4511913094649973e+00 9.1041892472523411e+00 7.1993557667632846e-01 -2 3 2
2582 861 1 4.2380000000000001e-01 3.6468699902479154e+00 7.5517899761592204e+00 2.4679038977035663e+00 4 0 2
3590 1197 1 4.2380000000000001e-01 -1.0960099260782510e+00 7.0092411083310537e+00 5.3937700659918573e+00 2 -2 -2
3589 1197 2 -8.4760000000000002e-01 -4.7451825837726691e-01 6.2258370488938821e+00 5.4113803476466655e+00 2 -2 -2
3649 1217 2 -8.4760000000000002e-01 3.6997372709423701e+01 8.6690476942938819e+00 4.9274760118567107e+00 -3 -1 1
1410 470 1 4.2380000000000001e-01 7.3412500430130123e+00 4.4233129458222091e+00 2.8837829334010756e+00 1 -3 -1
3505 1169 2 -8.4760000000000002e-01 5.3312627791825831e+00 6.5393414958813949e+00 -4.9257513210745452e-01 4 0 0
3765 1255 1 4.2380000000000001e-01 6.4771957268500522e+00 6.0029690430005340e+00 9.7841451004784430e-01 3 5 -2
3764 1255 1 4.2380000000000001e-01 6.9798335787073622e+00 6.4409309622563402e+00 2.4693626661370480e+00 3 5 -2
3763 1255 2 -8.4760000000000002e-01 7.1894747273609791e+00 5.8784636114409405e+00 1.6693851443175216e+00 3 5 -2
2953 985 2 -8.4760000000000002e-01 6.1076358609590011e+00 9.6262414437701427e+00 -1.3384722697199858e-01 0 1 0
3507 1169 1 4.2380000000000001e-01 4.4683433281751990e+00 6.8252742344834854e+00 -9.0958400964888120e-01 4 0 0
3957 1319 1 4.2380000000000001e-01 3.5665902473366522e+00 5.6193351459927694e+00 3.0321096328128485e+00 3 -7 2
3956 1319 1 4.2380000000000001e-01 3.6955446198356956e+00 5.8807389174296159e+00 4.6391009607837557e+00 3 -7 2
3955 1319 2 -8.4760000000000002e-01 4.1251430759332299e+00 6.0362144166042428e+00 3.7494061086305983e+00 3 -7 2
4365 1455 1 4.2380000000000001e-01 5.5060635316235080e+00 7.1455619652039353e+00 3.6704427628724963e+00 -4 3 1
4363 1455 2 -8.4760000000000002e-01 6.4597542067562674e+00 7.4468213159177719e+00 3.6708946976175376e+00 -4 3 1
4364 1455 1 4.2380000000000001e-01 6.8261995466952108e+00 7.3920927119824835e+00 4.5998758005306621e+00 -4 3 1
1411 471 2 -8.4760000000000002e-01 7.7859094847398502e+00 1.1114065455467594e+01 3.0720944523950662e+00 1 -5 3
2955 985 1 4.2380000000000001e-01 6.5068223286689566e+00 1.0534646136628989e+01 -2.5928290204499160e-01 0 1 0
2954 985 1 4.2380000000000001e-01 6.6452168321043708e+00 8.9528648739259147e+00 -6.4164040965857372e-01 0 1 0
4079 1360 1 4.2380000000000001e-01 4.4397911392675651e+00 9.7535785698351631e+00 -4.0627312144315275e-01 -2 3 2
1413 471 1 4.2380000000000001e-01 6.8564628067320008e+00 1.1454384858036782e+01 2.9285880371420543e+00 1 -5 3
1412 471 1 4.2380000000000001e-01 7.7880193989822963e+00 1.0115617926619937e+01 3.0139457294628764e+00 1 -5 3
4313 1438 1 4.2380000000000001e-01 1.0112934096483073e+01 1.0631340916666829e+01 7.5976662825702945e-01 -2 0 0
2502 834 1 4.2380000000000001e-01 1.0387560602048884e+01 6.2116262773232824e+00 1.7081066455140319e+00 3 2 0
4312 1438 2 -8.4760000000000002e-01 1.0647627603894103e+01 1.0073926355695363e+01 1.3951213420453121e+00 -2 0 0
664 222 2 -8.4760000000000002e-01 1.2106984632214958e+01 7.1921377466051108e+00 3.0103420656581408e+00 -1 -1 4
665 222 1 4.2380000000000001e-01 1.2636656548621392e+01 6.3475967004032912e+00 3.0908503337469897e+00 -1 -1 4
666 222 1 4.2380000000000001e-01 1.2204354092564408e+01 7.7279522224325223e+00 3.8492140191607049e+00 -1 -1 4
1952 651 1 4.2380000000000001e-01 1.0695069453569277e+01 9.4131948611300356e+00 -1.0108375405960928e+00 -2 -2 2
1951 651 2 -8.4760000000000002e-01 9.7597684850701576e+00 9.0602124320049189e+00 -1.0408176502302071e+00 -2 -2 2
1601 534 1 4.2380000000000001e-01 1.3186738301901057e+01 9.9003766119807537e+00 2.7793283458969702e+00 1 -3 0
1379 460 1 4.2380000000000001e-01 1.3150428608511938e+01 9.3080844633644162e+00 4.9063079234750377e+00 5 4 3
3077 1026 1 4.2380000000000001e-01 1.2695452705952658e+01 6.8648351057013244e+00 3.3031646668526671e-01 -1 1 2
3078 1026 1 4.2380000000000001e-01 1.3508574721484587e+01 8.2676597900091124e+00 1.3461827021713679e-01 -1 1 2
3076 1026 2 -8.4760000000000002e-01 1.3433338671111684e+01 7.3180422660610702e+00 -1.7009421598394270e-01 -1 1 2
1600 534 2 -8.4760000000000002e-01 1.3271170905180494e+01 1.0839381157303013e+01 3.1131314925563700e+00 1 -3 0
1953 651 1 4.2380000000000001e-01 9.7817009343149639e+00 8.0612686771296413e+00 -1.0845646027296727e+00 -2 -2 2
4314 1438 1 4.2380000000000001e-01 1.0049505775976318e+01 9.4043456626447561e+00 1.8357971928790553e+00 -2 0 0
4246 1416 2 -8.4760000000000002e-01 1.7630795548551028e+01 8.0787044452267924e+00 1.5012215363814465e+00 -1 -1 2
3926 1309 1 4.2380000000000001e-01 1.5337173965416756e+01 1.0535141032186560e+01 3.0505777211971719e-01 2 2 6
495 165 1 4.2380000000000001e-01 2.0092990996902120e+01 5.6965202141904827e+00 7.8460849184936254e-01 0 2 1
4248 1416 1 4.2380000000000001e-01 1.6759504246391348e+01 7.6259426695596417e+00 1.3111118312043883e+00 -1 -1 2
3927 1309 1 4.2380000000000001e-01 1.6103860180734674e+01 9.1130883106848817e+00 6.5600047206668677e-02 2 2 6
3925 1309 2 -8.4760000000000002e-01 1.5251324160553096e+01 9.5406026274193003e+00 3.6675917348371545e-01 2 2 6
4247 1416 1 4.2380000000000001e-01 1.8022102827718552e+01 8.4208413841335048e+00 6.4676033206260009e-01 -1 -1 2
3263 1088 1 4.2380000000000001e-01 1.7976566072768023e+01 1.0518132973292765e+01 -9.4772588357106669e-02 -1 -3 1
3264 1088 1 4.2380000000000001e-01 1.8872638722559149e+01 9.4787220116042032e+00 -9.8024457574509927e-01 -1 -3 1
493 165 2 -8.4760000000000002e-01 2.0735976628894722e+01 6.3859095361823179e+00 4.5055355954849130e-01 0 2 1
1000 334 2 -8.4760000000000002e-01 1.7855463390737071e+01 5.8350925301387866e+00 4.7532478723077078e+00 -4 2 6
3262 1088 2 -8.4760000000000002e-01 1.7942376023792843e+01 9.7752662208829122e+00 -7.6355012932191724e-01 -1 -3 1
1002 334 1 4.2380000000000001e-01 1.8784276539538158e+01 5.4641823794097091e+00 4.7493426552770206e+00 -4 2 6
1667 556 1 4.2380000000000001e-01 2.0891810014966644e+01 9.2869663640412181e+00 5.9004919008937149e+00 0 1 3
1666 556 2 -8.4760000000000002e-01 2.0982693661932174e+01 9.8762535059064938e+00 5.0975198211340187e+00 0 1 3
1668 556 1 4.2380000000000001e-01 2.1003613333409067e+01 9.3130142722304488e+00 4.2713191497815020e+00 0 1 3
3293 1098 1 4.2380000000000001e-01 1.7149461766409789e+01 5.5283374383565267e+00 -1.5098886414549568e+00 -3 -1 0
4305 1435 1 4.2380000000000001e-01 2.0637475482959221e+01 8.2049018783224845e+00 2.4521390850682057e-02 1 5 1
494 165 1 4.2380000000000001e-01 2.1454142121902720e+01 6.5297307325517675e+00 1.1316086793766988e+00 0 2 1
4303 1435 2 -8.4760000000000002e-01 2.0804794498211486e+01 9.0862375184301030e+00 -4.1767110498571447e-01 1 5 1
1785 595 1 4.2380000000000001e-01 2.1315095471747643e+01 9.2300685603998271e+00 1.6957290450828721e+00 -4 -1 3
1783 595 2 -8.4760000000000002e-01 2.1842355687369487e+01 8.8446566252962100e+00 2.4531838090796425e+00 -4 -1 3
1784 595 1 4.2380000000000001e-01 2.2815322717463442e+01 8.8561276474591946e+00 2.2219116264790220e+00 -4 -1 3
2279 760 1 4.2380000000000001e-01 2.4343430387089107e+01 7.0934608125518448e+00 2.5662820971080214e+00 0 6 2
2278 760 2 -8.4760000000000002e-01 2.4866879424092662e+01 6.6961672367649783e+00 3.3202331328530530e+00 0 6 2
4304 1435 1 4.2380000000000001e-01 2.1362043325041604e+01 8.9478725628501685e+00 -1.2365800378310894e+00 1 5 1
866 289 1 4.2380000000000001e-01 2.2721428415209267e+01 1.0314295885045619e+01 4.7054668427726991e+00 0 2 -1
865 289 2 -8.4760000000000002e-01 2.3628969161683479e+01 9.9664506045828443e+00 4.9413858559572885e+00 0 2 -1
1353 451 1 4.2380000000000001e-01 2.4264556215319367e+01 6.9844960071061770e+00 7.8368370097543272e-02 -2 3 2
1352 451 1 4.2380000000000001e-01 2.4928008768260216e+01 8.4481415964148354e+00 3.6983811411306577e-01 -2 3 2
1351 451 2 -8.4760000000000002e-01 2.4211749678103580e+01 7.8067486490114621e+00 6.4528655436255811e-01 -2 3 2
669 223 1 4.2380000000000001e-01 2.4316360962027336e+01 1.0583823160099961e+01 6.8317942751882743e-02 1 3 4
667 223 2 -8.4760000000000002e-01 2.4637350085691125e+01 1.0431184729944096e+01 -8.6653560510779992e-01 1 3 4
867 289 1 4.2380000000000001e-01 2.3581681956876832e+01 8.9767039292344979e+00 5.0772100824664648e+00 0 2 -1
668 223 1 4.2380000000000001e-01 2.3886448289134599e+01 1.0074852935259980e+01 -1.4228246985255102e+00 1 3 4
4266 1422 1 4.2380000000000001e-01 2.2405923169265712e+01 6.0869621228640884e+00 3.3732974149822050e+00 -2 3 5
2280 760 1 4.2380000000000001e-01 2.5843520184900292e+01 6.8412601516295357e+00 3.1608466664712385e+00 0 6 2
3100 1034 2 -8.4760000000000002e-01 3.1086585072367981e+01 6.9091774194914226e+00 -9.5033596885131622e-01 -3 -1 -1
3101 1034 1 4.2380000000000001e-01 3.0894507785621819e+01 7.8267000650232514e+00 -6.0170771441867488e-01 -3 -1 -1
1651 551 2 -8.4760000000000002e-01 1.7572760714234189e+01 1.7516712973541523e+01 1.2978663263413479e+01 1 0 -7
3490 1164 2 -8.4760000000000002e-01 2.9338735049696265e+01 4.6128422298729577e+00 5.3576714676304160e+00 -1 -4 0
2927 976 1 4.2380000000000001e-01 2.9793160530618195e+01 5.8724833405844992e+00 2.2097867145619063e+00 -1 3 0
3778 1260 2 -8.4760000000000002e-01 2.8978539229201264e+01 9.6583315247591486e+00 3.1347406194903140e+00 -4 4 -1
3102 1034 1 4.2380000000000001e-01 3.0755724880042472e+01 6.2282150946104968e+00 -2.9680306447076288e-01 -3 -1 -1
3780 1260 1 4.2380000000000001e-01 2.9410935091971695e+01 9.2688726020063879e+00 2.3213287853804014e+00 -4 4 -1
3813 1271 1 4.2380000000000001e-01 2.6440021834036465e+01 9.8974062872089750e+00 -1.3379744667568654e+00 2 -1 -2
3811 1271 2 -8.4760000000000002e-01 2.6837428160527235e+01 8.9920085299337629e+00 -1.4883293484004694e+00 2 -1 -2
3779 1260 1 4.2380000000000001e-01 2.9301000054040262e+01 9.1737520703861435e+00 3.9480578211418580e+00 -4 4 -1
2926 976 2 -8.4760000000000002e-01 3.0779335551173332e+01 5.9942064124170420e+00 2.0960970514465878e+00 -1 3 0
2928 976 1 4.2380000000000001e-01 3.1265070003010777e+01 5.3502908227330739e+00 2.6874662875318238e+00 -1 3 0
517 173 2 -8.4760000000000002e-01 2.9903287351288082e+01 9.2129134441951841e+00 2.7520229349926684e-01 -1 2 0
550 184 2 -8.4760000000000002e-01 2.9351204006766089e+01 4.7402710333152243e+00 -2.5032214877226866e-01 3 -1 -1
2109 703 1 4.2380000000000001e-01 2.7824430274925671e+01 1.1803783144665717e+01 3.1854746547333166e+00 -2 0 -1
38 13 1 4.2380000000000001e-01 2.7630596394407934e+01 5.5838765768499430e+00 4.8898666111868012e+00 1 2 6
551 184 1 4.2380000000000001e-01 2.8511840405405643e+01 4.6226930349292248e+00 -7.8129049063192180e-01 3 -1 -1
552 184 1 4.2380000000000001e-01 3.0137655970953801e+01 4.4693594203672244e+00 -8.0564427625200041e-01 3 -1 -1
4058 1353 1 4.2380000000000001e-01 3.3166062093342738e+01 6.4010579720696139e+00 -5.6573510874260613e-01 4 1 -2
4057 1353 2 -8.4760000000000002e-01 3.4095494424289981e+01 6.0317153800313719e+00 -5.6074297908132675e-01 4 1 -2
636 212 1 4.2380000000000001e-01 3.5752250113405921e+01 5.0108201660846827e+00 7.3985111602119780e-01 -1 3 -4
4368 1456 1 4.2380000000000001e-01 -1.1318912237299057e+00 9.0824292365615023e+00 1.2602025912156885e+00 -3 2 0
519 173 1 4.2380000000000001e-01 2.8978978291220951e+01 9.0423740904637260e+00 -6.6634146371330027e-02 -1 2 0
518 173 1 4.2380000000000001e-01 3.0369433087057910e+01 9.8572092810599674e+00 -3.3132465911750075e-01 -1 2 0
4102 1368 2 -8.4760000000000002e-01 3.2380820542486909e+01 8.9919609293170932e+00 2.2691901195818840e+00 -3 2 -3
3271 1091 2 -8.4760000000000002e-01 3.5212052306182663e+01 8.0144767895412201e+00 2.9813429839969574e+00 0 1 -1
3273 1091 1 4.2380000000000001e-01 3.4499771694370196e+01 8.7041051256980708e+00 2.8496139129650215e+00 0 1 -1
4012 1338 2 -8.4760000000000002e-01 3.5926779693033389e+01 1.0880425659230978e+01 1.2659240238364915e+00 -3 3 3
4013 1338 1 4.2380000000000001e-01 3.5807365387557986e+01 9.9146858298595379e+00 1.4969439964927660e+00 -3 3 3
4104 1368 1 4.2380000000000001e-01 3.2034477576355599e+01 9.8596485115842434e+00 1.9121932737088709e+00 -3 2 -3
2111 704 1 4.2380000000000001e-01 3.6258346077933915e+01 4.8884953032629888e+00 5.2225112804595764e+00 1 -2 -6
2110 704 2 -8.4760000000000002e-01 3.5615864157475364e+01 5.1849976128137625e+00 4.5156970577026918e+00 1 -2 -6
2112 704 1 4.2380000000000001e-01 3.6029260113454370e+01 5.0561108808216151e+00 3.6141564810888402e+00 1 -2 -6
3272 1091 1 4.2380000000000001e-01 3.4831848116741803e+01 7.1055114758248124e+00 2.8095581659879896e+00 0 1 -1
3650 1217 1 4.2380000000000001e-01 3.6312116857622229e+01 8.2529254861034502e+00 4.3295210668594821e+00 -3 -1 1
4103 1368 1 4.2380000000000001e-01 3.1726035286879920e+01 8.2633629818770249e+00 2.0674859554874296e+00 -3 2 -3
3404 1135 1 4.2380000000000001e-01 3.4833321277870496e+01 7.7232486798727304e+00 -6.9958610488983697e-01 0 3 0
3405 1135 1 4.2380000000000001e-01 3.6352282132451954e+01 8.2169234912674316e+00 -3.5837668574614412e-01 0 3 0
3403 1135 2 -8.4760000000000002e-01 3.5549455982302696e+01 8.3817335079242987e+00 -9.3160519693976374e-01 0 3 0
2462 821 1 4.2380000000000001e-01 2.0867466766474173e+01 -9.8808575284401468e-01 1.7364424668401249e+01 -3 -1 -1
2869 957 2 -8.4760000000000002e-01 3.1378305725796567e+00 1.6987984709761928e+01 5.0161892755226090e-01 -2 0 -1
8 3 1 4.2380000000000001e-01 1.0709094725322954e+00 1.5002603792426022e+01 -4.8425708351226571e-01 2 -4 1