LAMMPS data file via write_data, version 7 Aug 2019, timestep = 2000153

4500 atoms
2 atom types
3000 bonds
1 bond types
1500 angles
1 angle types

1.1881224103582610e-03 3.5529811877584805e+01 xlo xhi
-1.9737038586569611e-02 3.5576737038590707e+01 ylo yhi
-4.0749144901049306e-02 3.5544749144891441e+01 zlo zhi

Masses

1 1.00794
2 15.9994

Pair Coeffs # lj/cut/coul/long/gpu

1 0 0
2 0.155394 3.16556

Bond Coeffs # harmonic

1 5000 1

Angle Coeffs # harmonic

1 500 109.47

Atoms # full

2488 830 2 -8.4760000000000002e-01 5.3651865348950949e+00 3.0383041553816654e+00 5.3822629478857413e+00 1 0 -1
2489 830 1 4.2380000000000001e-01 4.6398985874639687e+00 3.5096222745523566e+00 4.8805056272307796e+00 1 0 -1
2285 762 1 4.2380000000000001e-01 7.5068508291237235e-01 3.8776469845552586e+00 1.3473399202661003e+00 0 1 0
4316 1439 1 4.2380000000000001e-01 4.4468377940014534e+00 3.9482810506810657e+00 2.3700063351982097e+00 1 -1 0
4315 1439 2 -8.4760000000000002e-01 3.9046665437476338e+00 4.2294606479215684e+00 3.1617971523363955e+00 1 -1 0
4317 1439 1 4.2380000000000001e-01 4.0147778283743296e+00 5.2123784996560678e+00 3.3090796234509470e+00 1 -1 0
4489 1497 2 -8.4760000000000002e-01 2.0373970198899659e+01 9.6259033643642786e-02 1.6142017481447098e+01 -1 0 0
1483 495 2 -8.4760000000000002e-01 1.9760262583873562e+01 1.6942626636730768e+01 4.2509955472040772e-01 1 0 -1
4169 1390 1 4.2380000000000001e-01 3.5105933431145985e+01 3.2064757101057642e+00 3.6176635443653833e+00 0 2 -2
1730 577 1 4.2380000000000001e-01 3.8614967752423515e+00 2.7444694489731919e-01 2.3965219290529327e+00 0 2 1
2128 710 2 -8.4760000000000002e-01 2.9265121568406705e+01 1.0141424473017643e+01 2.2028814705837080e-01 -1 2 1
4125 1375 1 4.2380000000000001e-01 2.1158199056852958e+00 2.0548524278226328e+00 1.8164536458328540e+00 1 1 0
4123 1375 2 -8.4760000000000002e-01 2.4330838687468983e+00 1.1130509648392779e+00 1.7055584505377281e+00 1 1 0
4124 1375 1 4.2380000000000001e-01 1.7731496911160030e+00 4.8780396976966589e-01 2.1220891521513838e+00 1 1 0
2284 762 2 -8.4760000000000002e-01 9.7460151852159704e-01 3.5918978344632144e+00 2.2790879357476643e+00 0 1 0
2286 762 1 4.2380000000000001e-01 1.8922448524736240e+00 3.9120244469532941e+00 2.5144463905495265e+00 0 1 0
3738 1246 1 4.2380000000000001e-01 3.5427690504618980e+01 2.0805468393846338e+00 5.4718263554520847e+00 -1 0 1
3516 1172 1 4.2380000000000001e-01 1.3371940265624838e+01 4.3370197184721579e+00 1.3032726389908353e-01 1 0 1
1211 404 1 4.2380000000000001e-01 1.8438045044879857e+01 2.6512367804521719e-01 1.1676409471519809e+01 0 -1 -1
3244 1082 2 -8.4760000000000002e-01 5.2097830162456820e+00 3.4722407784374831e+00 7.3968784745798477e-01 2 -1 0
30 10 1 4.2380000000000001e-01 6.1982984115066708e+00 5.0189486262996121e+00 1.3687729534560786e+00 1 1 3
3246 1082 1 4.2380000000000001e-01 5.6793622706540337e+00 2.6590691482823630e+00 1.0834770069826327e+00 2 -1 0
2490 830 1 4.2380000000000001e-01 6.2360213482002509e+00 3.1659155285287328e+00 4.9075991041682956e+00 1 0 -1
387 129 1 4.2380000000000001e-01 9.3347953628521836e+00 3.9348756213763489e+00 9.9396726050351147e-01 0 1 3
1808 603 1 4.2380000000000001e-01 9.8065992088957117e+00 2.1566947179083527e+00 1.8547383394493762e+00 1 1 1
1807 603 2 -8.4760000000000002e-01 8.8890979724665229e+00 2.5391078357530268e+00 1.7456695402986651e+00 1 1 1
385 129 2 -8.4760000000000002e-01 9.4009217739702642e+00 4.7193785783579880e+00 3.7742358086839950e-01 0 1 3
262 88 2 -8.4760000000000002e-01 7.6267300079197184e+00 3.4563618835746057e+00 4.1367399181757971e+00 -1 0 0
264 88 1 4.2380000000000001e-01 7.9765692811067428e+00 3.2481538695396321e+00 3.2233908465872001e+00 -1 0 0
263 88 1 4.2380000000000001e-01 8.1990771679488912e+00 4.1581043903091457e+00 4.5609099516384974e+00 -1 0 0
462 154 1 4.2380000000000001e-01 7.8774770572436648e+00 1.6144423132343362e+00 5.2493257424645545e+00 -1 0 1
1809 603 1 4.2380000000000001e-01 8.2608979518794712e+00 1.8192671181187452e+00 1.4504766496916188e+00 1 1 1
386 129 1 4.2380000000000001e-01 8.5966375834520914e+00 5.3023529579302648e+00 4.9236483383981733e-01 0 1 3
1488 496 1 4.2380000000000001e-01 1.1001573227981410e+01 6.8999094185953886e+00 3.8472291382085784e+00 0 0 1
1463 488 1 4.2380000000000001e-01 1.2191897501004673e+01 2.4175576436968194e+00 2.4736871151397253e+00 -1 1 -1
1462 488 2 -8.4760000000000002e-01 1.1776059986933900e+01 2.4142449944123006e+00 1.5642849330693966e+00 -1 1 -1
1080 360 1 4.2380000000000001e-01 1.1882269306748672e+01 6.0621150334593144e-01 1.8140655460910646e+00 0 -1 1
460 154 2 -8.4760000000000002e-01 7.9659718733864029e+00 8.2200557631224658e-01 5.8527796078002705e+00 -1 0 1
502 168 2 -8.4760000000000002e-01 8.5293529700143509e+00 5.9552388742534816e+00 5.2278673600663685e+00 2 0 0
461 154 1 4.2380000000000001e-01 7.1185090999286711e+00 2.9157842874558160e-01 5.8328292346226105e+00 -1 0 1
937 313 2 -8.4760000000000002e-01 7.4647209570904414e+00 5.6071162531341001e-01 5.3469214883168392e-01 0 0 0
2658 886 1 4.2380000000000001e-01 1.0925430245887799e+01 2.8073870094691373e+00 5.1337852136608735e+00 0 1 1
2656 886 2 -8.4760000000000002e-01 1.1575030094015911e+01 2.4793723442004545e+00 4.4479491539533722e+00 0 1 1
3288 1096 1 4.2380000000000001e-01 1.4072819325208087e+01 6.2200565947156585e+00 3.8463270867470545e+00 0 1 1
3286 1096 2 -8.4760000000000002e-01 1.4567776191191914e+01 5.7685169167225343e+00 3.1039839488504373e+00 0 1 1
3287 1096 1 4.2380000000000001e-01 1.4361091797064681e+01 6.2258058247025456e+00 2.2390492113964791e+00 0 1 1
725 242 1 4.2380000000000001e-01 1.4990961548669924e+01 4.0795956057930933e+00 3.7033468991712613e+00 1 0 0
724 242 2 -8.4760000000000002e-01 1.5040840214339386e+01 3.1630925687284210e+00 4.1001835072813719e+00 1 0 0
726 242 1 4.2380000000000001e-01 1.5199918987221212e+01 2.4938409370824499e+00 3.3744145139008621e+00 1 0 0
1464 488 1 4.2380000000000001e-01 1.2377569373553966e+01 2.8878812736705561e+00 9.2101254243687225e-01 -1 1 -1
101 34 1 4.2380000000000001e-01 1.7002376668200046e+01 3.2745065678812662e+00 5.8977879747038982e+00 1 1 1
76 26 2 -8.4760000000000002e-01 1.5891077068578312e+01 8.5452488026155238e-01 2.9582037075640915e+00 2 2 1
3514 1172 2 -8.4760000000000002e-01 1.3873267122280412e+01 3.4722690181052447e+00 1.0164728595165201e-01 1 0 1
3041 1014 1 4.2380000000000001e-01 1.7020138877955890e+01 5.1591317328209829e+00 4.9558522789771517e+00 0 0 0
100 34 2 -8.4760000000000002e-01 1.7866546161231831e+01 3.7648491811357139e+00 5.7850076255680225e+00 1 1 1
3042 1014 1 4.2380000000000001e-01 1.6144366738160020e+01 6.0138601081417171e+00 3.8746770758454723e+00 0 0 0
2657 886 1 4.2380000000000001e-01 1.2270294808209098e+01 1.9135571282022830e+00 4.8911241510992847e+00 0 1 1
1484 495 1 4.2380000000000001e-01 1.9129660441070737e+01 1.6197189657029288e+01 2.0920987757529377e-01 1 0 -1
78 26 1 4.2380000000000001e-01 1.6858383851711025e+01 1.0233209013525348e+00 3.1473313949808310e+00 2 2 1
77 26 1 4.2380000000000001e-01 1.5473477029519813e+01 3.9490946446035519e-01 3.7419816088996698e+00 2 2 1
1816 606 2 -8.4760000000000002e-01 2.3381243417805306e+00 1.7582066262256610e+01 1.0571289961379700e+01 0 0 1
2309 770 1 4.2380000000000001e-01 1.8140283830644982e+01 5.1757614517781603e+00 1.1127224879754964e+00 0 0 1
3326 1109 1 4.2380000000000001e-01 1.8193801933268777e+01 9.6429510693890330e-01 4.6664169842340026e+00 -1 1 0
2570 857 1 4.2380000000000001e-01 1.8586011354217661e+01 5.2781421032128746e+00 3.9492233404946950e+00 -2 0 -1
4052 1351 1 4.2380000000000001e-01 2.0944231861797601e+01 4.3973966880863706e+00 3.1282986321476622e+00 0 1 1
4053 1351 1 4.2380000000000001e-01 2.2247285368305953e+01 4.6958896339632368e+00 4.0660780448722642e+00 0 1 1
4051 1351 2 -8.4760000000000002e-01 2.1943048797249304e+01 4.4411326787506846e+00 3.1482093435912506e+00 0 1 1
1448 483 1 4.2380000000000001e-01 2.2852714030957703e+01 5.0170146392237296e+00 1.5364803922290218e+00 0 2 0
1447 483 2 -8.4760000000000002e-01 2.3343525945463313e+01 5.1120615533857343e+00 6.7044649908367926e-01 0 2 0
3408 1136 1 4.2380000000000001e-01 2.1707155938525649e+01 1.9484519227154165e+00 5.7662610471445097e+00 1 1 1
3406 1136 2 -8.4760000000000002e-01 2.1110819877917422e+01 1.7053721391361649e+00 5.0012515905960759e+00 1 1 1
2571 857 1 4.2380000000000001e-01 1.8932164599863022e+01 4.3804427136479305e+00 2.6298333134189882e+00 -2 0 -1
3407 1136 1 4.2380000000000001e-01 2.0440802459041350e+01 2.4334348191475144e+00 4.8565266089372967e+00 1 1 1
3325 1109 2 -8.4760000000000002e-01 1.8325228917676515e+01 1.7170042389590749e+00 4.0213583301981348e+00 -1 1 0
3327 1109 1 4.2380000000000001e-01 1.8082896426013843e+01 2.5807313219600387e+00 4.4631673532452281e+00 -1 1 0
3303 1101 1 4.2380000000000001e-01 2.3628230590542085e+01 3.1806128410668606e+00 2.9779923042116145e+00 0 0 2
1444 482 2 -8.4760000000000002e-01 2.2554143281927090e+01 4.9052264832080326e+00 5.7835234979959758e+00 0 -1 1
2569 857 2 -8.4760000000000002e-01 1.9321604059305880e+01 4.8608425340947941e+00 3.4156428174384863e+00 -2 0 -1
1175 392 1 4.2380000000000001e-01 2.3466777221497878e+01 4.2948701395156935e-01 8.6676629710392217e-01 -2 -1 0
1355 452 1 4.2380000000000001e-01 1.8682285118214370e+01 6.0675292345029186e-01 2.5648646329518274e+00 -1 0 1
1356 452 1 4.2380000000000001e-01 1.9557412208548165e+01 8.3405618815987637e-01 1.2050989811757895e+00 -1 0 1
1354 452 2 -8.4760000000000002e-01 1.9039496575714566e+01 1.6716282250225148e-01 1.7407863273651405e+00 -1 0 1
2308 770 2 -8.4760000000000002e-01 1.8006395870335094e+01 4.1851550083484028e+00 1.1394928764355605e+00 0 0 1
194 65 1 4.2380000000000001e-01 3.2715710017360507e+01 1.2420564614929733e+01 3.7292196374237502e-01 0 1 2
1194 398 1 4.2380000000000001e-01 8.4639025179866323e+00 1.7702633756702639e+01 4.0097040106779804e+00 0 0 -1
1299 433 1 4.2380000000000001e-01 2.6253048294825177e+01 5.1103923917732876e+00 9.1440573859049246e-01 -1 2 0
3301 1101 2 -8.4760000000000002e-01 2.4598351111045474e+01 2.9434721907879347e+00 2.9272478442394103e+00 0 0 2
2574 858 1 4.2380000000000001e-01 2.6995488333291647e+01 4.4144330443639044e+00 5.4914744268644498e+00 0 1 0
4375 1459 2 -8.4760000000000002e-01 2.4853346231005965e+01 2.8524450752624446e+00 5.6240872331127623e+00 -1 1 3
4377 1459 1 4.2380000000000001e-01 2.4575769644739836e+01 3.1602646493328415e+00 4.7140639996716915e+00 -1 1 3
2572 858 2 -8.4760000000000002e-01 2.7580813279917727e+01 4.1002359419254182e+00 4.7440664410253826e+00 0 1 0
2573 858 1 4.2380000000000001e-01 2.7222973803399846e+01 4.4409132998014229e+00 3.8746794244549414e+00 0 1 0
3302 1101 1 4.2380000000000001e-01 2.4737971974529074e+01 2.2631268308724861e+00 2.2078167588161546e+00 0 0 2
4010 1337 1 4.2380000000000001e-01 2.5332912204063888e+01 4.3921970060610471e+00 2.8384881895356635e+00 0 0 0
4009 1337 2 -8.4760000000000002e-01 2.6069711681659289e+01 5.0666126996225556e+00 2.8857542835010386e+00 0 0 0
1281 427 1 4.2380000000000001e-01 2.8007873366754421e+01 1.4210926697584934e+00 3.0863441167670107e+00 -1 1 0
1934 645 1 4.2380000000000001e-01 2.8655727389113682e+01 5.2946527071815268e+00 1.8906236486910553e+00 0 1 0
1933 645 2 -8.4760000000000002e-01 2.9380812476494036e+01 4.6072935236922774e+00 1.8489957271845898e+00 0 1 0
2410 804 2 -8.4760000000000002e-01 2.8475418846823654e+01 2.1252536945154961e+00 1.4139184491339858e+00 -1 0 1
2411 804 1 4.2380000000000001e-01 2.8771876648062921e+01 2.9653453114442936e+00 1.8681238414688710e+00 -1 0 1
1279 427 2 -8.4760000000000002e-01 2.7679185051828568e+01 1.4024869984918324e+00 4.0305694636247225e+00 -1 1 0
1160 387 1 4.2380000000000001e-01 2.9164513695401027e+01 1.5698086539374050e+00 4.7382325565190149e+00 0 1 0
1280 427 1 4.2380000000000001e-01 2.7491639577338827e+01 2.3358043398084622e+00 4.3366567533034592e+00 -1 1 0
1174 392 2 -8.4760000000000002e-01 2.4363476699516990e+01 8.4823963154873117e-01 1.0100153435142742e+00 -2 -1 0
3564 1188 1 4.2380000000000001e-01 2.9358058986750301e+01 4.6114899191037839e+00 4.7540604684468217e+00 -2 0 0
2313 771 1 4.2380000000000001e-01 2.4993716944932252e+01 8.4936566278288228e-01 4.8583112185099750e+00 -2 0 1
2312 771 1 4.2380000000000001e-01 2.6144176848669279e+01 2.7132380516436999e-01 3.8539278509461319e+00 -2 0 1
2412 804 1 4.2380000000000001e-01 2.8422169278542899e+01 2.2806140197252462e+00 4.2752525578147077e-01 -1 0 1
4168 1390 2 -8.4760000000000002e-01 3.4649270831327627e+01 3.3125138575458415e+00 4.5009298404905982e+00 0 2 -2
798 266 1 4.2380000000000001e-01 7.2825303364785636e+00 2.1035450586351767e-01 2.2195030259479176e+00 -1 -1 0
1935 645 1 4.2380000000000001e-01 3.0142085146588716e+01 4.8901227493292687e+00 2.4324471719072100e+00 0 1 0
2075 692 1 4.2380000000000001e-01 2.9429614565095296e+01 7.4345263092341707e-01 5.1191476241906164e-01 0 0 1
1159 387 2 -8.4760000000000002e-01 2.9871425282367248e+01 1.4313160432378820e+00 5.4318027027485360e+00 0 1 0
1823 608 1 4.2380000000000001e-01 7.8593881456805335e+00 3.3109286054976433e-01 1.7676859325599647e+01 2 1 -1
3739 1247 2 -8.4760000000000002e-01 3.1797268918992653e+01 2.8116198492347317e+00 4.3072755724511831e+00 -1 2 2
3740 1247 1 4.2380000000000001e-01 3.1184227238139808e+01 2.2436127924013642e+00 4.8563581605596333e+00 -1 2 2
3741 1247 1 4.2380000000000001e-01 3.1447416330068918e+01 3.7479453316261218e+00 4.2782650199484520e+00 -1 2 2
1169 390 1 4.2380000000000001e-01 3.2533560957937354e+01 2.4581836760268647e+00 2.7579227968174354e+00 0 0 -1
1170 390 1 4.2380000000000001e-01 3.2543785445748355e+01 3.3090087116604834e+00 1.3641976957398767e+00 0 0 -1
3562 1188 2 -8.4760000000000002e-01 3.0269324196738907e+01 4.9820902996267309e+00 4.9334897589068563e+00 -2 0 0
4170 1390 1 4.2380000000000001e-01 3.3660763779375245e+01 3.2253115875137053e+00 4.3776675562827405e+00 0 2 -2
3563 1188 1 4.2380000000000001e-01 3.0252902435462623e+01 5.5110061786810673e+00 5.7819719346820699e+00 -2 0 0
1243 415 2 -8.4760000000000002e-01 3.4667846070942900e+01 6.2385629224239969e-01 9.8517637014535309e-01 0 0 1
1245 415 1 4.2380000000000001e-01 3.5204269834830967e+01 6.8910190401221094e-02 1.6209670746310150e+00 0 0 1
1568 523 1 4.2380000000000001e-01 3.0669111026246270e+01 4.2192355680023423e+00 6.9497314802073251e-01 0 0 1
1244 415 1 4.2380000000000001e-01 3.4379136593237590e+01 1.4663554808341346e+00 1.4399145765755585e+00 0 0 1
120 40 1 4.2380000000000001e-01 3.4448571542864599e+01 5.7050892032411129e+00 5.2811338475303256e+00 0 1 0
1168 390 2 -8.4760000000000002e-01 3.3075829698709384e+01 2.7012327191917693e+00 1.9536737372752420e+00 0 0 -1
1136 379 1 4.2380000000000001e-01 3.2575406642222916e+01 1.7354204915759688e+01 1.1847368072355417e+01 -3 0 1
1389 463 1 4.2380000000000001e-01 3.1384707028423033e+01 3.3413068804243165e+00 1.7648576958610189e+01 -2 0 0
917 306 1 4.2380000000000001e-01 2.1919244099215831e+01 2.0327935031116806e-01 4.1327513820943080e+00 0 1 -1
363 121 1 4.2380000000000001e-01 4.3593118892048119e+00 1.0510044957208343e+01 1.1204567471366806e+00 2 0 0
2585 862 1 4.2380000000000001e-01 4.4749018187546641e+00 7.8054690047573425e+00 5.4325725254680828e+00 0 1 2
2995 999 2 -8.4760000000000002e-01 4.9558457550416843e+00 6.8289830884719045e+00 3.7577763828014912e+00 2 0 -1
362 121 1 4.2380000000000001e-01 4.0807089063380806e+00 8.9040463254168554e+00 1.2185659708112599e+00 2 0 0
3272 1091 1 4.2380000000000001e-01 2.1755018087469851e+00 7.2956389102788179e+00 1.7586150534486129e+00 0 2 0
3271 1091 2 -8.4760000000000002e-01 2.8351362438001866e+00 7.8624861272033542e+00 2.2520827235567835e+00 0 2 0
3273 1091 1 4.2380000000000001e-01 2.3517547646666963e+00 8.5927301701314889e+00 2.7348145742298535e+00 0 2 0
2584 862 2 -8.4760000000000002e-01 4.4105569148227453e+00 8.5005961303098267e+00 6.1485354337240654e+00 0 1 2
3218 1073 1 4.2380000000000001e-01 4.2776063882804829e+00 9.9796748259835120e+00 5.2822461795339946e+00 0 0 1
2997 999 1 4.2380000000000001e-01 5.8820384526836609e+00 7.0039504872992078e+00 3.4238632199949106e+00 2 0 -1
3219 1073 1 4.2380000000000001e-01 3.2204091753416479e+00 1.0900328138834862e+01 4.4448638641360478e+00 0 0 1
3217 1073 2 -8.4760000000000002e-01 4.1396203934209552e+00 1.0864309114364485e+01 4.8369062759343908e+00 0 0 1
2878 960 2 -8.4760000000000002e-01 1.3560379219791037e+00 9.3469506444796639e+00 3.7350075108337548e+00 1 1 0
2879 960 1 4.2380000000000001e-01 1.3841809841233874e+00 9.0804762604007099e+00 4.6984099075727794e+00 1 1 0
2996 999 1 4.2380000000000001e-01 4.2995511679126803e+00 7.3414230116121768e+00 3.2040369186651607e+00 2 0 -1
361 121 2 -8.4760000000000002e-01 4.7118949772179386e+00 9.6043475246753243e+00 8.8520889651081147e-01 2 0 0
2880 960 1 4.2380000000000001e-01 7.6187372446575385e-01 1.0143956155635381e+01 3.6268583917452153e+00 1 1 0
3689 1230 1 4.2380000000000001e-01 5.7282902483114189e+00 1.1629258369218865e+01 5.1805648889698697e+00 0 0 1
2274 758 1 4.2380000000000001e-01 7.8776084701845961e-01 5.7175850177027243e+00 1.1048537788597343e-01 1 0 0
2272 758 2 -8.4760000000000002e-01 1.1958606407868759e+00 6.6145746669711665e+00 2.8021567915771339e-01 1 0 0
1536 512 1 4.2380000000000001e-01 3.5440295599942345e+01 8.7529070970851919e+00 3.4920336402772484e-01 -2 1 -1
1486 496 2 -8.4760000000000002e-01 1.1048511378484458e+01 6.8432583344238411e+00 2.8499666482699628e+00 0 0 1
1487 496 1 4.2380000000000001e-01 1.1464016294376913e+01 5.9732275328001778e+00 2.5847377006971617e+00 0 0 1
2826 942 1 4.2380000000000001e-01 6.3941664215876672e+00 8.7845945368584264e+00 2.3027900569651933e+00 1 1 2
2824 942 2 -8.4760000000000002e-01 7.0284954288799701e+00 8.0162306841522515e+00 2.3875717070941271e+00 1 1 2
3456 1152 1 4.2380000000000001e-01 6.2016758351244858e+00 1.0644795999027867e+01 3.6283294135129601e-01 0 1 0
808 270 2 -8.4760000000000002e-01 1.1510594703748545e+01 6.8564600291051772e+00 5.6609887179666920e+00 0 1 1
29 10 1 4.2380000000000001e-01 6.8877661000692294e+00 6.4915849399333077e+00 1.5186224828520687e+00 1 1 3
28 10 2 -8.4760000000000002e-01 6.8907744794673444e+00 5.6378057525842031e+00 9.9804833712301044e-01 1 1 3
326 109 1 4.2380000000000001e-01 1.0358321059586343e+01 8.1899714443502116e+00 2.4575309608904701e+00 0 1 1
2518 840 2 -8.4760000000000002e-01 1.0848936339120176e+01 1.0546503050876419e+01 4.1793772611454356e+00 2 0 1
2520 840 1 4.2380000000000001e-01 1.1551816395165897e+01 9.9092621092988864e+00 4.4953320078489920e+00 2 0 1
2519 840 1 4.2380000000000001e-01 1.1273554321944435e+01 1.1420146897218435e+01 3.9419120907386169e+00 2 0 1
761 254 1 4.2380000000000001e-01 9.5906640820752660e+00 9.2140259950255050e+00 6.0653709568803083e-01 -1 0 1
327 109 1 4.2380000000000001e-01 1.0099253437666881e+01 9.6693671522547664e+00 3.0984276294722357e+00 0 1 1
325 109 2 -8.4760000000000002e-01 9.7565522667392042e+00 8.9885806684205303e+00 2.4511028271814062e+00 0 1 1
3454 1152 2 -8.4760000000000002e-01 7.0291721255296835e+00 1.1205571812169733e+01 3.8976291435365890e-01 0 1 0
2825 942 1 4.2380000000000001e-01 7.9510863283594668e+00 8.3627934775321826e+00 2.5568788543401206e+00 1 1 2
1647 549 1 4.2380000000000001e-01 8.0383523266700347e+00 1.0741390942402568e+01 5.7110202806575341e+00 0 -2 1
1646 549 1 4.2380000000000001e-01 9.3812256998072190e+00 1.0014832586304195e+01 5.1319856670481183e+00 0 -2 1
3688 1230 2 -8.4760000000000002e-01 6.6455077811474297e+00 1.1976770650486777e+01 5.3752207106081364e+00 0 0 1
504 168 1 4.2380000000000001e-01 9.4545911530375264e+00 6.2897605817558233e+00 5.4066785830253163e+00 2 0 0
810 270 1 4.2380000000000001e-01 1.1721089350722146e+01 7.8260175477262273e+00 5.7858687753990337e+00 0 1 1
4218 1406 1 4.2380000000000001e-01 2.6641446969012730e+00 1.1570636235109291e+01 6.3000899392131673e-02 -1 -2 -1
2718 906 1 4.2380000000000001e-01 1.4446562728279035e+01 1.7448927817528968e+01 9.1918961466961004e+00 0 0 0
3991 1331 2 -8.4760000000000002e-01 1.3969692945424320e+01 6.8882630554180277e+00 6.5423664839222406e-01 0 1 0
3040 1014 2 -8.4760000000000002e-01 1.6979970532331418e+01 6.0049117168710282e+00 4.4238866670128978e+00 0 0 0
1737 579 1 4.2380000000000001e-01 1.2474743466063742e+01 8.7975768966664862e+00 2.3390967437175152e+00 0 0 -1
1736 579 1 4.2380000000000001e-01 1.3377803192263531e+01 9.8644602014285283e+00 1.4948692503585501e+00 0 0 -1
1735 579 2 -8.4760000000000002e-01 1.3157838655260099e+01 9.5244962439979108e+00 2.4091912615858075e+00 0 0 -1
697 233 2 -8.4760000000000002e-01 1.5049943501957399e+01 9.5244607614980197e+00 4.2004620680369493e+00 1 -1 1
698 233 1 4.2380000000000001e-01 1.5685401442022899e+01 8.7605403376535111e+00 4.0883789525040282e+00 1 -1 1
699 233 1 4.2380000000000001e-01 1.4233479491322868e+01 9.3629149509763092e+00 3.6461743008781142e+00 1 -1 1
336 112 1 4.2380000000000001e-01 1.3592729386647438e+01 9.2351668038062833e+00 5.3340597447732323e+00 -1 -1 1
239 80 1 4.2380000000000001e-01 1.4277911481835833e+01 1.1684581674197958e+01 1.8503708939479282e+00 -1 0 1
9 3 1 4.2380000000000001e-01 2.4485516538036588e+01 1.7486329772817221e+01 1.5213948632745725e+01 -1 1 0
3074 1025 1 4.2380000000000001e-01 1.7125214271192309e+01 8.2303471825559402e+00 6.2456982762839042e+00 -1 1 1
3279 1093 1 4.2380000000000001e-01 1.7951544737610991e+01 7.5439840551526975e+00 4.7707255332775205e+00 1 1 -1
3993 1331 1 4.2380000000000001e-01 1.3172567015339634e+01 6.5911515291230360e+00 1.2863315969491085e-01 0 1 0
1449 483 1 4.2380000000000001e-01 2.3591993825343629e+01 6.0706725398461536e+00 5.3161861940991917e-01 0 2 0
3788 1263 1 4.2380000000000001e-01 1.8071416014569031e+01 1.0516457503096754e+01 4.5338584447283949e+00 1 0 1
2577 859 1 4.2380000000000001e-01 2.0350390921788499e+01 6.6830814321181879e+00 2.6345267613094148e+00 1 2 1
2575 859 2 -8.4760000000000002e-01 2.0360421344275057e+01 7.6812401193783897e+00 2.5751750143179493e+00 1 2 1
2576 859 1 4.2380000000000001e-01 2.0494355231237137e+01 8.0680531584045436e+00 3.4875244568366299e+00 1 2 1
1578 526 1 4.2380000000000001e-01 2.1576434281943289e+01 8.2831554691597695e+00 5.6739290865627598e+00 0 1 0
1577 526 1 4.2380000000000001e-01 2.1149534847702487e+01 9.4733594369703429e+00 4.6406586410227773e+00 0 1 0
1576 526 2 -8.4760000000000002e-01 2.0972100527037320e+01 8.5285493910989203e+00 4.9159671010862942e+00 0 1 0
3277 1093 2 -8.4760000000000002e-01 1.8151162539028903e+01 8.5106327498291776e+00 4.9310024042669687e+00 1 1 -1
3278 1093 1 4.2380000000000001e-01 1.9140023142027250e+01 8.6387079317886908e+00 5.0064735890681993e+00 1 1 -1
3866 1289 1 4.2380000000000001e-01 2.1898280971218405e+01 7.6671835939162936e+00 1.8911247949768859e+00 2 0 0
1413 471 1 4.2380000000000001e-01 1.9565057566501146e+01 7.3949318510407425e+00 8.2343929414066175e-01 -2 1 0
3787 1263 2 -8.4760000000000002e-01 1.8510706375894703e+01 1.1400383861513919e+01 4.3737267149637633e+00 1 0 1
3865 1289 2 -8.4760000000000002e-01 2.2829659909775394e+01 7.6666153662344101e+00 1.5271513100466516e+00 2 0 0
1877 626 1 4.2380000000000001e-01 2.3010640377560684e+01 1.1568478105171591e+01 3.6107307191745552e+00 -1 -1 1
3858 1286 1 4.2380000000000001e-01 2.0581950284879582e+01 1.1325288796753565e+01 4.5267462687768907e+00 0 1 1
3856 1286 2 -8.4760000000000002e-01 2.1574085865398274e+01 1.1246482971275119e+01 4.6237037755246506e+00 0 1 1
73 25 2 -8.4760000000000002e-01 2.3308381393670565e+01 1.0217449758457519e+01 5.7447972648898993e-01 -2 0 -1
75 25 1 4.2380000000000001e-01 2.3162580889960875e+01 9.3848472796594322e+00 1.1087644931983094e+00 -2 0 -1
1562 521 1 4.2380000000000001e-01 2.6418266741512387e+01 1.0824992253424812e+01 2.6434641787958779e+00 0 -1 -1
4011 1337 1 4.2380000000000001e-01 2.5694159370221673e+01 5.9518813689149708e+00 3.1599871524042711e+00 0 0 0
3867 1289 1 4.2380000000000001e-01 2.3476935063112652e+01 7.4875777435566437e+00 2.2680458037840214e+00 2 0 0
3422 1141 1 4.2380000000000001e-01 2.7255888636306036e+01 9.8239301680677116e+00 5.5866849655847437e+00 2 1 0
480 160 1 4.2380000000000001e-01 2.5323271814676861e+01 8.3751394955399920e+00 3.4186522741716829e+00 0 1 1
3423 1141 1 4.2380000000000001e-01 2.8449719589752618e+01 8.9828291514773539e+00 4.8560733152200601e+00 2 1 0
479 160 1 4.2380000000000001e-01 2.4759607603213407e+01 7.3120388281327058e+00 4.5225437171502740e+00 0 1 1
478 160 2 -8.4760000000000002e-01 2.4786697269347684e+01 7.5415486265448175e+00 3.5496433115262573e+00 0 1 1
3421 1141 2 -8.4760000000000002e-01 2.7558057199995638e+01 8.9137679821200901e+00 5.3034125651550985e+00 2 1 0
2378 793 1 4.2380000000000001e-01 2.7128003610351840e+01 1.1927522863758231e+01 4.3267987129049139e+00 -1 1 0
607 203 2 -8.4760000000000002e-01 2.9299109931705729e+01 1.7308659770724280e+01 2.4295750545424277e-01 0 1 0
481 161 2 -8.4760000000000002e-01 2.6385960760378811e+01 1.1216116462463846e+01 6.0458076018093356e+00 0 1 1
1878 626 1 4.2380000000000001e-01 2.4419801293437583e+01 1.0998240814668707e+01 3.0144318101956249e+00 -1 -1 1
1876 626 2 -8.4760000000000002e-01 2.3765146114742812e+01 1.1753394811353258e+01 2.9810704054283739e+00 -1 -1 1
74 25 1 4.2380000000000001e-01 2.3355462677914627e+01 1.1004327306187720e+01 1.1897448676887590e+00 -2 0 -1
482 161 1 4.2380000000000001e-01 2.5473730617679671e+01 1.1075101073979315e+01 6.4303785645191160e+00 0 1 1
1561 521 2 -8.4760000000000002e-01 2.6062503007524079e+01 1.0013791563307823e+01 2.1794282678763053e+00 0 -1 -1
1563 521 1 4.2380000000000001e-01 2.6428245681707971e+01 9.9744336716626201e+00 1.2495750688941742e+00 0 -1 -1
2130 710 1 4.2380000000000001e-01 2.9844795024569379e+01 9.8220465704731037e+00 9.6990174720179190e-01 -1 2 1
1292 431 1 4.2380000000000001e-01 3.2343435627268363e+01 1.0148379196384974e+01 1.0461011288896553e+00 0 3 1
119 40 1 4.2380000000000001e-01 3.5219991496576867e+01 6.1062109660974704e+00 3.8989292796412207e+00 0 1 0
2368 790 2 -8.4760000000000002e-01 3.0105587648392063e+01 9.4142145373655701e+00 4.1053056975398592e+00 1 -1 1
2370 790 1 4.2380000000000001e-01 3.0291787686454867e+01 1.0388719249617461e+01 3.9803487836231835e+00 1 -1 1
2369 790 1 4.2380000000000001e-01 3.0573004281213510e+01 8.8914793741352760e+00 3.3924146910899542e+00 1 -1 1
118 40 2 -8.4760000000000002e-01 3.4483518447958986e+01 6.3597379566162742e+00 4.5260461324324037e+00 0 1 0
4275 1425 1 4.2380000000000001e-01 3.2454846673246507e+01 7.2506617328255061e+00 3.6468214138355770e+00 1 0 1
4274 1425 1 4.2380000000000001e-01 3.1050870529659601e+01 6.4620560162073826e+00 3.9177982064133299e+00 1 0 1
4273 1425 2 -8.4760000000000002e-01 3.1506672065262240e+01 7.1451403873333215e+00 3.3471975488999473e+00 1 0 1
923 308 1 4.2380000000000001e-01 3.1543825821626911e+01 7.9588772043793528e+00 1.9453712306394768e+00 1 1 1
3698 1233 1 4.2380000000000001e-01 3.4357548708901248e+01 8.0724086700211668e+00 5.2386191095007870e+00 0 1 0
1291 431 2 -8.4760000000000002e-01 3.3035638270353729e+01 1.0868267896475313e+01 9.9550952180715546e-01 0 3 1
924 308 1 4.2380000000000001e-01 3.1494117547637487e+01 7.8573842163034726e+00 3.1635170471632484e-01 1 1 1
1560 520 1 4.2380000000000001e-01 3.4550679543780532e+01 1.0959900030484697e+01 2.2063136179131178e+00 -1 1 1
1558 520 2 -8.4760000000000002e-01 3.5096594406427641e+01 1.1325914559855569e+01 2.9599416861841972e+00 -1 1 1
1559 520 1 4.2380000000000001e-01 3.4524487027391956e+01 1.1915096957314693e+01 3.5304695657474188e+00 -1 1 1
2592 864 1 4.2380000000000001e-01 3.1096336678252740e+01 9.1929892408390135e+00 5.5600609535282723e+00 1 -2 1
922 308 2 -8.4760000000000002e-01 3.1643638064306792e+01 8.4705133603218208e+00 1.0920192143238101e+00 1 1 1
1293 431 1 4.2380000000000001e-01 3.3818096258391392e+01 1.0541628746356393e+01 4.6540566109957582e-01 0 3 1
1772 591 1 4.2380000000000001e-01 3.0943489164131527e-01 1.6781291550111710e+01 1.2595360983909205e+00 -1 1 2
2613 871 1 4.2380000000000001e-01 4.0919277509979377e+00 1.6591295158140515e+01 1.5348548840156138e+00 1 -2 0
4216 1406 2 -8.4760000000000002e-01 3.1280278242756081e+00 1.2062071601266405e+01 8.0005406282766134e-01 -1 -2 -1
4015 1339 2 -8.4760000000000002e-01 2.5269786761858799e+00 1.2720969821870080e+01 3.2805885595475295e+00 0 1 -1
2611 871 2 -8.4760000000000002e-01 3.4393785800060024e+00 1.5844445308220102e+01 1.6626772079285619e+00 1 -2 0
4017 1339 1 4.2380000000000001e-01 2.8972781707562625e+00 1.2298088583934927e+01 2.4535495458276180e+00 0 1 -1
3935 1312 1 4.2380000000000001e-01 1.8716264949201604e+00 1.6106351415615027e+01 2.5176029288721899e+00 0 0 1
4016 1339 1 4.2380000000000001e-01 3.0681887025460775e+00 1.3529163610396918e+01 3.5126624109862163e+00 0 1 -1
2612 871 1 4.2380000000000001e-01 3.8651771162028083e+00 1.5118591005731027e+01 2.2028390368533008e+00 1 -2 0
626 209 1 4.2380000000000001e-01 5.0700253342567070e+00 1.4419212487527320e+01 4.1996817767362069e+00 -1 -1 -1
625 209 2 -8.4760000000000002e-01 4.8900567193588032e+00 1.4182425613815351e+01 3.2449630908161589e+00 -1 -1 -1
627 209 1 4.2380000000000001e-01 5.7160133076336619e+00 1.3793956321662057e+01 2.8365124671812194e+00 -1 -1 -1
3483 1161 1 4.2380000000000001e-01 1.7018949862608026e+00 1.2165929661029201e+01 4.7176160779276355e+00 1 0 1
3936 1312 1 4.2380000000000001e-01 5.8838842091873600e-01 1.5647040734597253e+01 3.4169418125386031e+00 0 0 1
3934 1312 2 -8.4760000000000002e-01 1.0411945777202913e+00 1.6422214077528970e+01 2.9764684797565888e+00 0 0 1
2823 941 1 4.2380000000000001e-01 9.0893480539454874e-01 1.2797281758130948e+01 1.4939282042973647e+00 1 0 2
1556 519 1 4.2380000000000001e-01 3.3867639008321035e+01 1.2773356155186459e+01 1.4763570441174151e+01 -1 0 1
1771 591 2 -8.4760000000000002e-01 9.1319946592637910e-02 1.7401561587960789e+01 5.0612024620183527e-01 -1 1 2
4044 1348 1 4.2380000000000001e-01 3.7509921631992427e+00 1.4906543532764331e+01 1.5291020149956649e-01 0 1 1
3481 1161 2 -8.4760000000000002e-01 1.2665794482666510e+00 1.1856361156654970e+01 5.5629630303086817e+00 1 0 1
3482 1161 1 4.2380000000000001e-01 3.5438994197296075e-01 1.1501812964710430e+01 5.3576594706664054e+00 1 0 1