LAMMPS data file. CGCMM style. atom_style full generated by VMD/TopoTools v1.7 on Mon Jan 30 18:28:36 IST 2023
 4500 atoms
 3000 bonds
 1500 angles
 0 dihedrals
 0 impropers
 2 atom types
 1 bond types
 1 angle types
 0 dihedral types
 0 improper types
  -0.0380 35.5690  xlo xhi
  -0.0590 35.6160  ylo yhi
  -0.0800 35.5840  zlo zhi

# Pair Coeffs
#
# 1  1HT
# 2  2OT

# Bond Coeffs
#
# 1  1HT-2OT

# Angle Coeffs
#
# 1  1HT-2OT-1HT

 Masses

 1 1.007940 # 1HT
 2 15.999400 # 2OT

 Atoms # full

1 1 2 -0.834000 27.509001 15.683000 7.197000 # 2OT TIP3
2 1 1 0.417000 27.093000 14.735000 6.886000 # 1HT TIP3
3 1 1 0.417000 27.099001 15.957000 8.157000 # 1HT TIP3
4 2 2 -0.834000 11.278000 17.469999 14.361000 # 2OT TIP3
5 2 1 0.417000 10.610000 17.587999 13.521000 # 1HT TIP3
6 2 1 0.417000 10.974000 18.132000 15.158000 # 1HT TIP3
7 3 2 -0.834000 18.292999 0.129000 15.550000 # 2OT TIP3
8 3 1 0.417000 17.874001 1.112000 15.708000 # 1HT TIP3
9 3 1 0.417000 18.523001 -0.000000 14.503000 # 1HT TIP3
10 4 2 -0.834000 28.021000 6.374000 16.646999 # 2OT TIP3
11 4 1 0.417000 28.993000 6.270000 16.187000 # 1HT TIP3
12 4 1 0.417000 27.254000 6.170000 15.915000 # 1HT TIP3
13 5 2 -0.834000 24.885000 10.897000 34.837002 # 2OT TIP3
14 5 1 0.417000 24.926001 10.262000 33.964001 # 1HT TIP3
15 5 1 0.417000 25.764000 10.736000 35.442001 # 1HT TIP3
16 6 2 -0.834000 11.103000 33.263000 1.160000 # 2OT TIP3
17 6 1 0.417000 11.367000 33.730999 2.097000 # 1HT TIP3
18 6 1 0.417000 11.010000 32.196999 1.304000 # 1HT TIP3
19 7 2 -0.834000 18.587999 31.680000 9.819000 # 2OT TIP3
20 7 1 0.417000 19.051001 30.927999 9.196000 # 1HT TIP3
21 7 1 0.417000 18.283001 32.514999 9.208000 # 1HT TIP3
22 8 2 -0.834000 34.841999 25.038000 26.222000 # 2OT TIP3
23 8 1 0.417000 33.974998 24.462000 25.931000 # 1HT TIP3
24 8 1 0.417000 35.535999 25.084999 25.396000 # 1HT TIP3
25 9 2 -0.834000 21.236000 18.448000 34.929001 # 2OT TIP3
26 9 1 0.417000 20.898001 18.416000 33.903999 # 1HT TIP3
27 9 1 0.417000 20.606001 17.816999 35.536999 # 1HT TIP3
28 10 2 -0.834000 32.610001 33.151001 32.266998 # 2OT TIP3
29 10 1 0.417000 32.806000 34.199001 32.091999 # 1HT TIP3
30 10 1 0.417000 33.521000 32.661999 32.581001 # 1HT TIP3
31 11 2 -0.834000 3.601000 14.893000 15.649000 # 2OT TIP3
32 11 1 0.417000 3.189000 14.656000 14.679000 # 1HT TIP3
33 11 1 0.417000 4.521000 14.348000 15.793000 # 1HT TIP3
34 12 2 -0.834000 10.913000 16.326000 0.646000 # 2OT TIP3
35 12 1 0.417000 11.941000 16.228001 0.328000 # 1HT TIP3
36 12 1 0.417000 10.861000 16.247999 1.722000 # 1HT TIP3
37 13 2 -0.834000 12.973000 25.282000 4.907000 # 2OT TIP3
38 13 1 0.417000 13.443000 25.565001 5.838000 # 1HT TIP3
39 13 1 0.417000 13.168000 24.240000 4.708000 # 1HT TIP3
40 14 2 -0.834000 32.266998 23.056999 13.070000 # 2OT TIP3
41 14 1 0.417000 31.785999 22.506001 12.275000 # 1HT TIP3
42 14 1 0.417000 31.704000 23.954000 13.280000 # 1HT TIP3
43 15 2 -0.834000 11.360000 26.134001 34.828999 # 2OT TIP3
44 15 1 0.417000 12.390000 25.815001 34.881001 # 1HT TIP3
45 15 1 0.417000 10.774000 25.577000 35.544998 # 1HT TIP3
46 16 2 -0.834000 7.921000 4.694000 28.259001 # 2OT TIP3
47 16 1 0.417000 7.899000 3.904000 27.521999 # 1HT TIP3
48 16 1 0.417000 7.035000 4.637000 28.874001 # 1HT TIP3
49 17 2 -0.834000 24.037001 8.138000 15.074000 # 2OT TIP3
50 17 1 0.417000 24.400000 9.128000 15.312000 # 1HT TIP3
51 17 1 0.417000 23.122999 7.950000 15.616000 # 1HT TIP3
52 18 2 -0.834000 11.854000 7.963000 26.820000 # 2OT TIP3
53 18 1 0.417000 11.614000 7.076000 27.388000 # 1HT TIP3
54 18 1 0.417000 10.984000 8.282000 26.266001 # 1HT TIP3
55 19 2 -0.834000 33.742001 19.844999 14.297000 # 2OT TIP3
56 19 1 0.417000 33.074001 20.469999 13.722000 # 1HT TIP3
57 19 1 0.417000 33.849998 20.252001 15.291000 # 1HT TIP3
58 20 2 -0.834000 31.832001 30.556000 31.792999 # 2OT TIP3
59 20 1 0.417000 31.235001 31.399000 32.105999 # 1HT TIP3
60 20 1 0.417000 32.766998 30.908001 31.385000 # 1HT TIP3
61 21 2 -0.834000 18.879000 18.044001 26.764999 # 2OT TIP3
62 21 1 0.417000 19.891001 17.826000 27.070000 # 1HT TIP3
63 21 1 0.417000 18.216999 17.275000 27.136999 # 1HT TIP3
64 22 2 -0.834000 0.959000 21.000999 23.216000 # 2OT TIP3
65 22 1 0.417000 1.591000 20.952000 24.091000 # 1HT TIP3
66 22 1 0.417000 1.573000 21.011999 22.327999 # 1HT TIP3
67 23 2 -0.834000 23.370001 3.080000 4.317000 # 2OT TIP3
68 23 1 0.417000 24.426001 2.921000 4.481000 # 1HT TIP3
69 23 1 0.417000 23.169001 3.097000 3.256000 # 1HT TIP3
70 24 2 -0.834000 8.863000 35.542999 25.961000 # 2OT TIP3
71 24 1 0.417000 8.053000 35.465000 25.250000 # 1HT TIP3
72 24 1 0.417000 8.462000 35.543999 26.964001 # 1HT TIP3
73 25 2 -0.834000 2.427000 0.498000 5.244000 # 2OT TIP3
74 25 1 0.417000 1.382000 0.740000 5.373000 # 1HT TIP3
75 25 1 0.417000 2.909000 0.458000 6.210000 # 1HT TIP3
76 26 2 -0.834000 20.632999 24.712999 16.971001 # 2OT TIP3
77 26 1 0.417000 21.327000 24.719999 16.143000 # 1HT TIP3
78 26 1 0.417000 20.100000 25.652000 17.002001 # 1HT TIP3
79 27 2 -0.834000 0.344000 32.896000 31.160999 # 2OT TIP3
80 27 1 0.417000 -0.003000 31.879000 31.049000 # 1HT TIP3
81 27 1 0.417000 0.758000 33.240002 30.225000 # 1HT TIP3
82 28 2 -0.834000 23.313999 13.433000 29.855000 # 2OT TIP3
83 28 1 0.417000 24.167999 14.057000 29.632999 # 1HT TIP3
84 28 1 0.417000 22.555000 13.581000 29.101999 # 1HT TIP3
85 29 2 -0.834000 8.771000 31.785000 11.837000 # 2OT TIP3
86 29 1 0.417000 8.168000 30.902000 11.691000 # 1HT TIP3
87 29 1 0.417000 8.964000 31.920000 12.890000 # 1HT TIP3
88 30 2 -0.834000 14.125000 32.654999 1.267000 # 2OT TIP3
89 30 1 0.417000 13.300000 33.327000 1.082000 # 1HT TIP3
90 30 1 0.417000 14.630000 32.439999 0.337000 # 1HT TIP3
91 31 2 -0.834000 0.687000 2.736000 17.200001 # 2OT TIP3
92 31 1 0.417000 1.512000 2.511000 17.860001 # 1HT TIP3
93 31 1 0.417000 0.276000 3.701000 17.454000 # 1HT TIP3
94 32 2 -0.834000 8.675000 2.941000 9.082000 # 2OT TIP3
95 32 1 0.417000 7.651000 3.286000 9.065000 # 1HT TIP3
96 32 1 0.417000 8.808000 2.174000 8.333000 # 1HT TIP3
97 33 2 -0.834000 16.452999 20.294001 21.472000 # 2OT TIP3
98 33 1 0.417000 16.936001 20.882999 20.707001 # 1HT TIP3
99 33 1 0.417000 15.669000 19.698999 21.028999 # 1HT TIP3
100 34 2 -0.834000 9.809000 10.960000 30.622999 # 2OT TIP3
101 34 1 0.417000 10.138000 11.928000 30.972000 # 1HT TIP3
102 34 1 0.417000 9.990000 10.220000 31.389000 # 1HT TIP3
103 35 2 -0.834000 0.518000 33.507000 27.434000 # 2OT TIP3
104 35 1 0.417000 -0.007000 32.933998 28.184999 # 1HT TIP3
105 35 1 0.417000 -0.017000 34.424999 27.242001 # 1HT TIP3
106 36 2 -0.834000 27.282000 3.811000 28.395000 # 2OT TIP3
107 36 1 0.417000 27.174000 4.876000 28.250000 # 1HT TIP3
108 36 1 0.417000 26.966000 3.549000 29.393000 # 1HT TIP3
109 37 2 -0.834000 14.047000 1.227000 1.042000 # 2OT TIP3
110 37 1 0.417000 14.862000 0.537000 0.881000 # 1HT TIP3
111 37 1 0.417000 13.547000 1.419000 0.104000 # 1HT TIP3
112 38 2 -0.834000 20.879999 16.141001 8.372000 # 2OT TIP3
113 38 1 0.417000 19.988001 15.626000 8.047000 # 1HT TIP3
114 38 1 0.417000 21.586000 16.188999 7.557000 # 1HT TIP3
115 39 2 -0.834000 20.674999 21.122999 13.966000 # 2OT TIP3
116 39 1 0.417000 20.638000 21.863001 14.752000 # 1HT TIP3
117 39 1 0.417000 19.797001 21.214001 13.345000 # 1HT TIP3
118 40 2 -0.834000 21.473000 29.474001 16.482000 # 2OT TIP3
119 40 1 0.417000 20.638000 29.438000 17.166000 # 1HT TIP3
120 40 1 0.417000 21.120001 29.311001 15.475000 # 1HT TIP3
121 41 2 -0.834000 7.507000 32.987000 9.934000 # 2OT TIP3
122 41 1 0.417000 6.927000 32.264999 10.491000 # 1HT TIP3
123 41 1 0.417000 7.299000 33.979000 10.306000 # 1HT TIP3
124 42 2 -0.834000 15.906000 16.830999 0.858000 # 2OT TIP3
125 42 1 0.417000 16.148001 15.838000 0.509000 # 1HT TIP3
126 42 1 0.417000 15.718000 16.804001 1.921000 # 1HT TIP3
127 43 2 -0.834000 9.125000 8.505000 5.545000 # 2OT TIP3
128 43 1 0.417000 9.908000 7.762000 5.576000 # 1HT TIP3
129 43 1 0.417000 9.134000 8.997000 4.583000 # 1HT TIP3
130 44 2 -0.834000 31.900999 5.241000 27.561001 # 2OT TIP3
131 44 1 0.417000 31.996000 4.258000 27.124001 # 1HT TIP3
132 44 1 0.417000 31.980000 5.988000 26.785999 # 1HT TIP3
133 45 2 -0.834000 1.658000 7.719000 30.089001 # 2OT TIP3
134 45 1 0.417000 1.207000 6.795000 29.759001 # 1HT TIP3
135 45 1 0.417000 2.105000 7.576000 31.061001 # 1HT TIP3
136 46 2 -0.834000 7.681000 18.613001 12.175000 # 2OT TIP3
137 46 1 0.417000 8.144000 17.639999 12.250000 # 1HT TIP3
138 46 1 0.417000 7.002000 18.625000 11.336000 # 1HT TIP3
139 47 2 -0.834000 23.268000 5.233000 25.158001 # 2OT TIP3
140 47 1 0.417000 23.021000 4.204000 25.379000 # 1HT TIP3
141 47 1 0.417000 24.240999 5.278000 24.693001 # 1HT TIP3
142 48 2 -0.834000 32.737999 22.150999 15.277000 # 2OT TIP3
143 48 1 0.417000 33.486000 22.864000 14.961000 # 1HT TIP3
144 48 1 0.417000 32.426998 22.378000 16.285999 # 1HT TIP3
145 49 2 -0.834000 21.240999 15.456000 10.451000 # 2OT TIP3
146 49 1 0.417000 21.929001 16.061001 11.023000 # 1HT TIP3
147 49 1 0.417000 20.599001 14.907000 11.124000 # 1HT TIP3
148 50 2 -0.834000 0.696000 30.565001 2.542000 # 2OT TIP3
149 50 1 0.417000 1.727000 30.261999 2.647000 # 1HT TIP3
150 50 1 0.417000 0.326000 30.920000 3.493000 # 1HT TIP3
151 51 2 -0.834000 13.773000 16.011999 2.740000 # 2OT TIP3
152 51 1 0.417000 12.942000 16.701000 2.777000 # 1HT TIP3
153 51 1 0.417000 13.441000 15.030000 3.042000 # 1HT TIP3
154 52 2 -0.834000 32.848000 27.555000 4.564000 # 2OT TIP3
155 52 1 0.417000 33.657001 26.992001 4.122000 # 1HT TIP3
156 52 1 0.417000 32.118000 27.792999 3.804000 # 1HT TIP3
157 53 2 -0.834000 18.625999 26.316999 21.563000 # 2OT TIP3
158 53 1 0.417000 19.490999 25.695000 21.384001 # 1HT TIP3
159 53 1 0.417000 18.457001 26.955000 20.709000 # 1HT TIP3
160 54 2 -0.834000 11.481000 9.648000 13.225000 # 2OT TIP3
161 54 1 0.417000 10.879000 8.858000 12.801000 # 1HT TIP3
162 54 1 0.417000 11.362000 9.655000 14.298000 # 1HT TIP3
163 55 2 -0.834000 28.433001 28.438000 5.926000 # 2OT TIP3
164 55 1 0.417000 27.469999 28.003000 6.150000 # 1HT TIP3
165 55 1 0.417000 28.819000 28.927999 6.807000 # 1HT TIP3
166 56 2 -0.834000 29.537001 18.938999 17.174999 # 2OT TIP3
167 56 1 0.417000 30.527000 18.955000 16.743999 # 1HT TIP3
168 56 1 0.417000 28.834000 19.367001 16.476000 # 1HT TIP3
169 57 2 -0.834000 22.657000 3.253000 10.086000 # 2OT TIP3
170 57 1 0.417000 23.041000 2.923000 11.040000 # 1HT TIP3
171 57 1 0.417000 22.455999 2.395000 9.463000 # 1HT TIP3
172 58 2 -0.834000 34.915001 1.143000 19.665001 # 2OT TIP3
173 58 1 0.417000 35.535000 0.324000 19.334000 # 1HT TIP3
174 58 1 0.417000 35.535000 1.998000 19.886999 # 1HT TIP3
175 59 2 -0.834000 26.639999 15.496000 1.174000 # 2OT TIP3
176 59 1 0.417000 25.587999 15.739000 1.136000 # 1HT TIP3
177 59 1 0.417000 26.764000 14.488000 1.539000 # 1HT TIP3
178 60 2 -0.834000 29.646999 7.711000 14.635000 # 2OT TIP3
179 60 1 0.417000 29.895000 6.790000 14.130000 # 1HT TIP3
180 60 1 0.417000 29.954000 8.549000 14.027000 # 1HT TIP3
181 61 2 -0.834000 28.296000 24.160000 30.127001 # 2OT TIP3
182 61 1 0.417000 28.502001 25.219000 30.079000 # 1HT TIP3
183 61 1 0.417000 29.132999 23.611000 29.723000 # 1HT TIP3
184 62 2 -0.834000 17.136000 34.797001 35.487999 # 2OT TIP3
185 62 1 0.417000 17.924000 35.535999 35.470001 # 1HT TIP3
186 62 1 0.417000 17.014000 34.377998 34.500000 # 1HT TIP3
187 63 2 -0.834000 19.643000 29.957001 34.595001 # 2OT TIP3
188 63 1 0.417000 19.368000 29.392000 35.473000 # 1HT TIP3
189 63 1 0.417000 20.448000 30.634001 34.839001 # 1HT TIP3
190 64 2 -0.834000 32.200001 32.446999 19.139999 # 2OT TIP3
191 64 1 0.417000 31.670000 31.943001 19.934999 # 1HT TIP3
192 64 1 0.417000 33.188000 32.022999 19.040001 # 1HT TIP3
193 65 2 -0.834000 26.033001 18.797001 8.171000 # 2OT TIP3
194 65 1 0.417000 25.125000 18.812000 7.586000 # 1HT TIP3
195 65 1 0.417000 26.098000 17.865000 8.710000 # 1HT TIP3
196 66 2 -0.834000 4.577000 34.568001 2.670000 # 2OT TIP3
197 66 1 0.417000 4.593000 35.015999 1.687000 # 1HT TIP3
198 66 1 0.417000 4.534000 33.493000 2.575000 # 1HT TIP3
199 67 2 -0.834000 6.174000 0.724000 7.545000 # 2OT TIP3
200 67 1 0.417000 6.417000 -0.012000 6.792000 # 1HT TIP3
201 67 1 0.417000 5.907000 1.654000 7.066000 # 1HT TIP3
202 68 2 -0.834000 29.799000 9.024000 7.918000 # 2OT TIP3
203 68 1 0.417000 28.816000 9.439000 8.087000 # 1HT TIP3
204 68 1 0.417000 29.996000 8.985000 6.857000 # 1HT TIP3
205 69 2 -0.834000 12.911000 11.983000 14.894000 # 2OT TIP3
206 69 1 0.417000 13.859000 11.953000 14.377000 # 1HT TIP3
207 69 1 0.417000 12.779000 12.954000 15.348000 # 1HT TIP3
208 70 2 -0.834000 27.621000 13.066000 4.258000 # 2OT TIP3
209 70 1 0.417000 27.058001 12.208000 3.921000 # 1HT TIP3
210 70 1 0.417000 28.235001 13.434000 3.449000 # 1HT TIP3
211 71 2 -0.834000 22.264999 31.396999 8.001000 # 2OT TIP3
212 71 1 0.417000 21.934000 30.389999 7.795000 # 1HT TIP3
213 71 1 0.417000 22.488001 31.493999 9.053000 # 1HT TIP3
214 72 2 -0.834000 10.727000 0.241000 5.234000 # 2OT TIP3
215 72 1 0.417000 9.995000 0.975000 5.538000 # 1HT TIP3
216 72 1 0.417000 11.361000 -0.004000 6.072000 # 1HT TIP3
217 73 2 -0.834000 8.975000 26.285999 33.143002 # 2OT TIP3
218 73 1 0.417000 9.528000 25.569000 33.731998 # 1HT TIP3
219 73 1 0.417000 9.048000 26.025999 32.097000 # 1HT TIP3
220 74 2 -0.834000 27.386999 25.499001 1.778000 # 2OT TIP3
221 74 1 0.417000 27.635000 26.455000 1.339000 # 1HT TIP3
222 74 1 0.417000 28.201000 24.808001 1.621000 # 1HT TIP3
223 75 2 -0.834000 21.670000 33.622002 1.067000 # 2OT TIP3
224 75 1 0.417000 22.020000 34.584000 0.721000 # 1HT TIP3
225 75 1 0.417000 21.995001 33.465000 2.085000 # 1HT TIP3
226 76 2 -0.834000 1.941000 30.653999 25.316000 # 2OT TIP3
227 76 1 0.417000 1.063000 30.062000 25.528000 # 1HT TIP3
228 76 1 0.417000 1.955000 31.521999 25.959000 # 1HT TIP3
229 77 2 -0.834000 27.125999 9.156000 10.848000 # 2OT TIP3
230 77 1 0.417000 26.264999 9.732000 10.543000 # 1HT TIP3
231 77 1 0.417000 27.112000 8.198000 10.350000 # 1HT TIP3
232 78 2 -0.834000 34.020000 12.620000 6.752000 # 2OT TIP3
233 78 1 0.417000 33.459000 13.501000 6.477000 # 1HT TIP3
234 78 1 0.417000 33.424999 12.004000 7.409000 # 1HT TIP3
235 79 2 -0.834000 31.466999 21.405001 28.997999 # 2OT TIP3
236 79 1 0.417000 31.011999 21.891001 29.849001 # 1HT TIP3
237 79 1 0.417000 30.712000 21.198999 28.254999 # 1HT TIP3
238 80 2 -0.834000 3.647000 30.416000 5.072000 # 2OT TIP3
239 80 1 0.417000 3.081000 29.535000 4.807000 # 1HT TIP3
240 80 1 0.417000 3.019000 31.094999 5.627000 # 1HT TIP3
241 81 2 -0.834000 27.487000 2.262000 19.044001 # 2OT TIP3
242 81 1 0.417000 27.221001 3.106000 19.663000 # 1HT TIP3
243 81 1 0.417000 28.329000 2.523000 18.421000 # 1HT TIP3
244 82 2 -0.834000 16.377001 23.993000 17.311001 # 2OT TIP3
245 82 1 0.417000 15.817000 24.878000 17.051001 # 1HT TIP3
246 82 1 0.417000 16.389000 23.313999 16.472000 # 1HT TIP3
247 83 2 -0.834000 14.701000 14.105000 35.153999 # 2OT TIP3
248 83 1 0.417000 14.108000 13.294000 35.549999 # 1HT TIP3
249 83 1 0.417000 14.223000 14.505000 34.272999 # 1HT TIP3
250 84 2 -0.834000 7.434000 27.434999 16.934999 # 2OT TIP3
251 84 1 0.417000 7.101000 26.974001 17.853001 # 1HT TIP3
252 84 1 0.417000 7.572000 28.493999 17.091999 # 1HT TIP3
253 85 2 -0.834000 29.753000 25.420000 19.257999 # 2OT TIP3
254 85 1 0.417000 30.261999 26.311001 19.594999 # 1HT TIP3
255 85 1 0.417000 28.705000 25.487000 19.511000 # 1HT TIP3
256 86 2 -0.834000 17.768000 30.212999 30.677999 # 2OT TIP3
257 86 1 0.417000 17.214001 30.886999 30.042000 # 1HT TIP3
258 86 1 0.417000 18.010000 29.316000 30.128000 # 1HT TIP3
259 87 2 -0.834000 24.349001 17.527000 4.313000 # 2OT TIP3
260 87 1 0.417000 23.702000 17.937000 3.551000 # 1HT TIP3
261 87 1 0.417000 24.490999 18.256001 5.096000 # 1HT TIP3
262 88 2 -0.834000 17.653999 8.681000 19.509001 # 2OT TIP3
263 88 1 0.417000 17.424999 8.742000 20.563000 # 1HT TIP3
264 88 1 0.417000 17.076000 7.888000 19.059999 # 1HT TIP3
265 89 2 -0.834000 0.392000 22.086000 19.205999 # 2OT TIP3
266 89 1 0.417000 0.166000 21.186001 19.760000 # 1HT TIP3
267 89 1 0.417000 1.145000 22.653000 19.733000 # 1HT TIP3
268 90 2 -0.834000 11.315000 0.046000 9.805000 # 2OT TIP3
269 90 1 0.417000 12.172000 -0.001000 9.150000 # 1HT TIP3
270 90 1 0.417000 11.643000 -0.001000 10.833000 # 1HT TIP3
271 91 2 -0.834000 5.690000 16.531000 21.055000 # 2OT TIP3
272 91 1 0.417000 6.696000 16.287001 20.747999 # 1HT TIP3
273 91 1 0.417000 5.444000 17.528999 20.724001 # 1HT TIP3
274 92 2 -0.834000 5.522000 13.965000 21.162001 # 2OT TIP3
275 92 1 0.417000 4.666000 13.307000 21.193001 # 1HT TIP3
276 92 1 0.417000 5.536000 14.493000 20.219999 # 1HT TIP3
277 93 2 -0.834000 23.993999 18.322001 11.989000 # 2OT TIP3
278 93 1 0.417000 23.746000 19.059000 12.738000 # 1HT TIP3
279 93 1 0.417000 24.611000 17.554001 12.429000 # 1HT TIP3
280 94 2 -0.834000 3.862000 34.370998 27.650000 # 2OT TIP3
281 94 1 0.417000 4.632000 33.785000 27.171000 # 1HT TIP3
282 94 1 0.417000 4.124000 35.417999 27.604000 # 1HT TIP3
283 95 2 -0.834000 22.809999 32.401001 19.653999 # 2OT TIP3
284 95 1 0.417000 23.773001 32.842999 19.445000 # 1HT TIP3
285 95 1 0.417000 22.495001 32.678001 20.649000 # 1HT TIP3
286 96 2 -0.834000 1.025000 31.202999 29.075001 # 2OT TIP3
287 96 1 0.417000 -0.004000 30.886999 28.990000 # 1HT TIP3
288 96 1 0.417000 1.457000 31.295000 28.089001 # 1HT TIP3
289 97 2 -0.834000 10.793000 9.351000 29.372000 # 2OT TIP3
290 97 1 0.417000 11.385000 8.459000 29.230000 # 1HT TIP3
291 97 1 0.417000 10.310000 9.614000 28.443001 # 1HT TIP3
292 98 2 -0.834000 21.127001 35.073002 4.882000 # 2OT TIP3
293 98 1 0.417000 21.415001 35.012001 3.843000 # 1HT TIP3
294 98 1 0.417000 20.052000 35.140999 4.955000 # 1HT TIP3
295 99 2 -0.834000 12.983000 14.286000 6.791000 # 2OT TIP3
296 99 1 0.417000 13.253000 13.624000 7.601000 # 1HT TIP3
297 99 1 0.417000 11.956000 14.109000 6.509000 # 1HT TIP3
298 100 2 -0.834000 0.298000 13.338000 1.711000 # 2OT TIP3
299 100 1 0.417000 -0.000000 12.422000 2.198000 # 1HT TIP3
300 100 1 0.417000 1.314000 13.244000 1.357000 # 1HT TIP3
301 101 2 -0.834000 6.744000 9.016000 15.623000 # 2OT TIP3
302 101 1 0.417000 5.777000 9.262000 16.038000 # 1HT TIP3
303 101 1 0.417000 7.364000 8.577000 16.389999 # 1HT TIP3
304 102 2 -0.834000 26.757000 1.064000 27.691999 # 2OT TIP3
305 102 1 0.417000 26.143000 1.545000 26.945000 # 1HT TIP3
306 102 1 0.417000 26.777000 -0.000000 27.511000 # 1HT TIP3
307 103 2 -0.834000 22.364000 5.463000 20.066000 # 2OT TIP3
308 103 1 0.417000 21.518999 4.818000 20.256001 # 1HT TIP3
309 103 1 0.417000 22.278999 5.885000 19.075001 # 1HT TIP3
310 104 2 -0.834000 26.190001 26.743999 20.004000 # 2OT TIP3
311 104 1 0.417000 26.462000 26.780001 21.049000 # 1HT TIP3
312 104 1 0.417000 25.304001 27.339001 19.843000 # 1HT TIP3
313 105 2 -0.834000 30.299000 7.597000 9.768000 # 2OT TIP3
314 105 1 0.417000 30.871000 8.509000 9.863000 # 1HT TIP3
315 105 1 0.417000 30.798000 6.929000 9.082000 # 1HT TIP3
316 106 2 -0.834000 26.160999 24.681999 28.122999 # 2OT TIP3
317 106 1 0.417000 26.372000 23.933001 28.872000 # 1HT TIP3
318 106 1 0.417000 25.542000 25.455999 28.552000 # 1HT TIP3
319 107 2 -0.834000 22.740000 22.806000 22.504000 # 2OT TIP3
320 107 1 0.417000 23.191999 23.392000 23.291000 # 1HT TIP3
321 107 1 0.417000 22.618999 23.417999 21.622999 # 1HT TIP3
322 108 2 -0.834000 32.604000 31.094000 24.194000 # 2OT TIP3
323 108 1 0.417000 33.639000 30.847000 24.382000 # 1HT TIP3
324 108 1 0.417000 32.037998 30.187000 24.045000 # 1HT TIP3
325 109 2 -0.834000 12.099000 26.332001 0.699000 # 2OT TIP3
326 109 1 0.417000 12.502000 27.211000 0.218000 # 1HT TIP3
327 109 1 0.417000 11.484000 25.788000 -0.001000 # 1HT TIP3
328 110 2 -0.834000 4.193000 14.282000 24.094999 # 2OT TIP3
329 110 1 0.417000 3.213000 13.921000 23.820000 # 1HT TIP3
330 110 1 0.417000 4.832000 14.290000 23.226000 # 1HT TIP3
331 111 2 -0.834000 14.809000 24.346001 14.694000 # 2OT TIP3
332 111 1 0.417000 15.882000 24.415001 14.587000 # 1HT TIP3
333 111 1 0.417000 14.443000 25.212000 15.224000 # 1HT TIP3
334 112 2 -0.834000 31.959000 33.451000 23.448999 # 2OT TIP3
335 112 1 0.417000 32.839001 33.424000 24.076000 # 1HT TIP3
336 112 1 0.417000 32.113998 32.824001 22.584000 # 1HT TIP3
337 113 2 -0.834000 6.786000 22.996000 3.270000 # 2OT TIP3
338 113 1 0.417000 6.545000 21.976000 3.532000 # 1HT TIP3
339 113 1 0.417000 6.904000 23.075001 2.200000 # 1HT TIP3
340 114 2 -0.834000 18.261000 30.114000 15.327000 # 2OT TIP3
341 114 1 0.417000 18.968000 29.360001 15.012000 # 1HT TIP3
342 114 1 0.417000 17.721001 30.483000 14.468000 # 1HT TIP3
343 115 2 -0.834000 34.820000 15.542000 26.924000 # 2OT TIP3
344 115 1 0.417000 35.076000 16.565001 27.159000 # 1HT TIP3
345 115 1 0.417000 33.756001 15.466000 26.754999 # 1HT TIP3
346 116 2 -0.834000 29.121000 8.077000 17.540001 # 2OT TIP3
347 116 1 0.417000 28.726999 8.292000 18.523001 # 1HT TIP3
348 116 1 0.417000 29.336000 9.003000 17.028000 # 1HT TIP3
349 117 2 -0.834000 1.624000 13.828000 11.730000 # 2OT TIP3
350 117 1 0.417000 0.851000 14.535000 11.468000 # 1HT TIP3
351 117 1 0.417000 1.768000 13.133000 10.916000 # 1HT TIP3
352 118 2 -0.834000 17.898001 22.372000 14.559000 # 2OT TIP3
353 118 1 0.417000 18.530001 22.113001 15.396000 # 1HT TIP3
354 118 1 0.417000 17.705000 21.490000 13.967000 # 1HT TIP3
355 119 2 -0.834000 33.375999 25.063000 33.250000 # 2OT TIP3
356 119 1 0.417000 33.471001 25.999001 33.779999 # 1HT TIP3
357 119 1 0.417000 34.027000 24.327999 33.699001 # 1HT TIP3
358 120 2 -0.834000 34.181000 11.673000 23.743999 # 2OT TIP3
359 120 1 0.417000 33.425999 11.505000 24.497999 # 1HT TIP3
360 120 1 0.417000 33.845001 11.267000 22.802000 # 1HT TIP3
361 121 2 -0.834000 34.021999 27.582001 13.648000 # 2OT TIP3
362 121 1 0.417000 34.694000 27.004000 13.029000 # 1HT TIP3
363 121 1 0.417000 34.119999 28.629000 13.405000 # 1HT TIP3
364 122 2 -0.834000 29.756001 1.665000 19.857000 # 2OT TIP3
365 122 1 0.417000 30.100000 0.649000 19.981001 # 1HT TIP3
366 122 1 0.417000 29.495001 2.077000 20.820999 # 1HT TIP3
367 123 2 -0.834000 28.650000 28.476999 19.243999 # 2OT TIP3
368 123 1 0.417000 29.518999 28.372999 18.611000 # 1HT TIP3
369 123 1 0.417000 28.049000 27.582001 19.180000 # 1HT TIP3
370 124 2 -0.834000 1.990000 25.344999 1.113000 # 2OT TIP3
371 124 1 0.417000 1.375000 25.158001 0.245000 # 1HT TIP3
372 124 1 0.417000 2.310000 24.406000 1.538000 # 1HT TIP3
373 125 2 -0.834000 9.532000 10.331000 10.052000 # 2OT TIP3
374 125 1 0.417000 9.265000 9.384000 10.496000 # 1HT TIP3
375 125 1 0.417000 10.134000 10.160000 9.171000 # 1HT TIP3
376 126 2 -0.834000 23.330000 30.834000 33.382000 # 2OT TIP3
377 126 1 0.417000 22.483999 30.900999 34.049999 # 1HT TIP3
378 126 1 0.417000 23.485001 29.802999 33.101002 # 1HT TIP3
379 127 2 -0.834000 17.781000 3.161000 33.432999 # 2OT TIP3
380 127 1 0.417000 18.254999 2.217000 33.209000 # 1HT TIP3
381 127 1 0.417000 17.886999 3.826000 32.589001 # 1HT TIP3
382 128 2 -0.834000 3.623000 32.685001 35.195999 # 2OT TIP3
383 128 1 0.417000 3.488000 32.223999 34.229000 # 1HT TIP3
384 128 1 0.417000 4.271000 33.542999 35.098999 # 1HT TIP3
385 129 2 -0.834000 11.273000 19.267000 19.853001 # 2OT TIP3
386 129 1 0.417000 10.472000 19.382000 19.139000 # 1HT TIP3
387 129 1 0.417000 11.197000 20.037001 20.607000 # 1HT TIP3
388 130 2 -0.834000 19.518000 21.298000 6.844000 # 2OT TIP3
389 130 1 0.417000 18.816999 21.510000 7.637000 # 1HT TIP3
390 130 1 0.417000 20.525999 21.382999 7.222000 # 1HT TIP3
391 131 2 -0.834000 0.183000 27.454000 30.965000 # 2OT TIP3
392 131 1 0.417000 -0.000000 26.434999 31.270000 # 1HT TIP3
393 131 1 0.417000 0.000000 28.118000 31.798000 # 1HT TIP3
394 132 2 -0.834000 25.362000 8.100000 35.081001 # 2OT TIP3
395 132 1 0.417000 26.236000 8.678000 34.817001 # 1HT TIP3
396 132 1 0.417000 24.669001 8.097000 34.252998 # 1HT TIP3
397 133 2 -0.834000 9.694000 34.443001 31.917000 # 2OT TIP3
398 133 1 0.417000 10.236000 34.944000 32.706001 # 1HT TIP3
399 133 1 0.417000 9.063000 33.678001 32.342999 # 1HT TIP3
400 134 2 -0.834000 13.196000 2.148000 3.499000 # 2OT TIP3
401 134 1 0.417000 13.690000 1.190000 3.420000 # 1HT TIP3
402 134 1 0.417000 12.146000 2.030000 3.280000 # 1HT TIP3
403 135 2 -0.834000 2.634000 6.166000 6.539000 # 2OT TIP3
404 135 1 0.417000 1.750000 6.464000 5.996000 # 1HT TIP3
405 135 1 0.417000 3.478000 6.141000 5.867000 # 1HT TIP3
406 136 2 -0.834000 34.293999 14.668000 29.357000 # 2OT TIP3
407 136 1 0.417000 33.733002 14.199000 28.562000 # 1HT TIP3
408 136 1 0.417000 34.500000 15.695000 29.096001 # 1HT TIP3
409 137 2 -0.834000 20.106001 27.159000 22.955999 # 2OT TIP3
410 137 1 0.417000 19.533001 26.584000 23.667999 # 1HT TIP3
411 137 1 0.417000 19.997999 28.211000 23.174000 # 1HT TIP3
412 138 2 -0.834000 12.140000 0.024000 2.380000 # 2OT TIP3
413 138 1 0.417000 11.731000 0.114000 1.384000 # 1HT TIP3
414 138 1 0.417000 11.335000 -0.006000 3.098000 # 1HT TIP3
415 139 2 -0.834000 3.089000 3.592000 6.701000 # 2OT TIP3
416 139 1 0.417000 2.449000 2.935000 6.131000 # 1HT TIP3
417 139 1 0.417000 4.096000 3.539000 6.314000 # 1HT TIP3
418 140 2 -0.834000 31.077000 19.885000 9.034000 # 2OT TIP3
419 140 1 0.417000 30.240999 20.167000 9.657000 # 1HT TIP3
420 140 1 0.417000 31.113001 18.809999 8.944000 # 1HT TIP3
421 141 2 -0.834000 4.168000 22.100000 17.966999 # 2OT TIP3
422 141 1 0.417000 5.234000 22.261999 17.906000 # 1HT TIP3
423 141 1 0.417000 3.971000 21.219999 18.561001 # 1HT TIP3
424 142 2 -0.834000 17.893000 9.925000 27.527000 # 2OT TIP3
425 142 1 0.417000 18.687000 10.102000 26.816999 # 1HT TIP3
426 142 1 0.417000 18.267000 9.328000 28.344999 # 1HT TIP3
427 143 2 -0.834000 31.281000 12.298000 26.165001 # 2OT TIP3
428 143 1 0.417000 32.146000 12.248000 26.809999 # 1HT TIP3
429 143 1 0.417000 30.489000 11.691000 26.577999 # 1HT TIP3
430 144 2 -0.834000 18.722000 25.464001 31.770000 # 2OT TIP3
431 144 1 0.417000 19.481001 24.763000 32.084999 # 1HT TIP3
432 144 1 0.417000 18.652000 25.459000 30.693001 # 1HT TIP3
433 145 2 -0.834000 13.684000 25.646000 25.205999 # 2OT TIP3
434 145 1 0.417000 13.036000 26.318001 24.663000 # 1HT TIP3
435 145 1 0.417000 14.566000 25.441999 24.618000 # 1HT TIP3
436 146 2 -0.834000 10.200000 13.710000 12.624000 # 2OT TIP3
437 146 1 0.417000 10.491000 12.787000 13.104000 # 1HT TIP3
438 146 1 0.417000 10.208000 14.511000 13.348000 # 1HT TIP3
439 147 2 -0.834000 2.760000 34.912998 7.201000 # 2OT TIP3
440 147 1 0.417000 3.355000 35.535000 7.854000 # 1HT TIP3
441 147 1 0.417000 2.226000 35.535000 6.499000 # 1HT TIP3
442 148 2 -0.834000 14.511000 28.302000 25.518000 # 2OT TIP3
443 148 1 0.417000 13.771000 27.829000 26.146999 # 1HT TIP3
444 148 1 0.417000 15.348000 28.618000 26.122000 # 1HT TIP3
445 149 2 -0.834000 26.878000 35.574001 24.179001 # 2OT TIP3
446 149 1 0.417000 27.231001 35.557999 23.158001 # 1HT TIP3
447 149 1 0.417000 27.186001 34.668999 24.680000 # 1HT TIP3
448 150 2 -0.834000 13.027000 31.794001 33.748001 # 2OT TIP3
449 150 1 0.417000 14.014000 31.632000 34.157001 # 1HT TIP3
450 150 1 0.417000 12.330000 31.978001 34.551998 # 1HT TIP3
451 151 2 -0.834000 11.603000 29.639999 20.204000 # 2OT TIP3
452 151 1 0.417000 12.084000 30.125999 21.040001 # 1HT TIP3
453 151 1 0.417000 11.328000 30.379000 19.466999 # 1HT TIP3
454 152 2 -0.834000 6.552000 16.507999 31.877001 # 2OT TIP3
455 152 1 0.417000 6.700000 15.466000 31.634001 # 1HT TIP3
456 152 1 0.417000 7.484000 16.934999 32.216000 # 1HT TIP3
457 153 2 -0.834000 28.736000 13.264000 23.334999 # 2OT TIP3
458 153 1 0.417000 28.584999 12.332000 23.861000 # 1HT TIP3
459 153 1 0.417000 27.924000 13.940000 23.561001 # 1HT TIP3
460 154 2 -0.834000 9.114000 24.143999 19.820999 # 2OT TIP3
461 154 1 0.417000 8.694000 24.024000 18.833000 # 1HT TIP3
462 154 1 0.417000 9.572000 23.218000 20.132999 # 1HT TIP3
463 155 2 -0.834000 23.986000 21.101000 11.946000 # 2OT TIP3
464 155 1 0.417000 24.198000 21.323000 10.911000 # 1HT TIP3
465 155 1 0.417000 23.978001 22.017000 12.516000 # 1HT TIP3
466 156 2 -0.834000 27.129999 28.000999 35.471001 # 2OT TIP3
467 156 1 0.417000 27.586000 27.191999 34.919998 # 1HT TIP3
468 156 1 0.417000 26.065001 27.836000 35.537998 # 1HT TIP3
469 157 2 -0.834000 1.983000 4.574000 15.192000 # 2OT TIP3
470 157 1 0.417000 1.976000 3.691000 14.570000 # 1HT TIP3
471 157 1 0.417000 2.326000 4.314000 16.181999 # 1HT TIP3
472 158 2 -0.834000 21.794001 15.803000 32.389000 # 2OT TIP3
473 158 1 0.417000 21.079000 16.155001 33.118000 # 1HT TIP3
474 158 1 0.417000 22.795000 15.933000 32.773998 # 1HT TIP3
475 159 2 -0.834000 8.582000 3.375000 14.850000 # 2OT TIP3
476 159 1 0.417000 8.994000 3.411000 13.853000 # 1HT TIP3
477 159 1 0.417000 7.896000 4.198000 14.986000 # 1HT TIP3
478 160 2 -0.834000 14.901000 16.544001 18.198999 # 2OT TIP3
479 160 1 0.417000 15.832000 16.671000 17.666000 # 1HT TIP3
480 160 1 0.417000 14.492000 15.568000 17.983000 # 1HT TIP3
481 161 2 -0.834000 34.671001 0.333000 25.106001 # 2OT TIP3
482 161 1 0.417000 33.681000 -0.003000 25.378000 # 1HT TIP3
483 161 1 0.417000 35.133999 0.814000 25.954000 # 1HT TIP3
484 162 2 -0.834000 34.219002 2.560000 33.685001 # 2OT TIP3
485 162 1 0.417000 34.394001 1.837000 32.902000 # 1HT TIP3
486 162 1 0.417000 34.084000 2.047000 34.625000 # 1HT TIP3
487 163 2 -0.834000 26.433001 1.121000 3.472000 # 2OT TIP3
488 163 1 0.417000 26.656000 1.973000 2.847000 # 1HT TIP3
489 163 1 0.417000 26.997999 1.189000 4.389000 # 1HT TIP3
490 164 2 -0.834000 20.084999 29.806000 1.946000 # 2OT TIP3
491 164 1 0.417000 19.006001 29.834999 1.950000 # 1HT TIP3
492 164 1 0.417000 20.436001 29.598000 0.946000 # 1HT TIP3
493 165 2 -0.834000 34.908001 0.781000 28.141001 # 2OT TIP3
494 165 1 0.417000 35.553001 -0.059000 27.929001 # 1HT TIP3
495 165 1 0.417000 35.486000 1.693000 28.125000 # 1HT TIP3
496 166 2 -0.834000 1.014000 25.614000 22.667999 # 2OT TIP3
497 166 1 0.417000 0.130000 26.177999 22.926001 # 1HT TIP3
498 166 1 0.417000 1.717000 25.653999 23.487000 # 1HT TIP3
499 167 2 -0.834000 4.329000 2.381000 8.416000 # 2OT TIP3
500 167 1 0.417000 4.810000 1.624000 9.017000 # 1HT TIP3
501 167 1 0.417000 3.475000 2.774000 8.947000 # 1HT TIP3
502 168 2 -0.834000 21.209000 9.345000 25.285000 # 2OT TIP3