LAMMPS data file via write_data, version 23 Jun 2022, timestep = 2000822

4500 atoms
2 atom types
3000 bonds
1 bond types
1500 angles
1 angle types

-0.11707955996190123 37.1040795599508 xlo xhi
-0.1251020557454794 37.10410205573917 ylo yhi
-0.1501723550718168 37.10417235505566 zlo zhi

Masses

1 15.9994
2 1.00794

Pair Coeffs # lj/cut/tip4p/long/gpu

1 0.16275 3.16435
2 0 0

Bond Coeffs # harmonic

1 250 0.9572

Angle Coeffs # harmonic

1 60 104.52

Atoms # full

2059 687 1 -1.0484 2.9536858492747813 3.79779361911139 3.410346795231373 -3 2 -1
1276 426 1 -1.0484 2.6658702631212776 2.73114092776539 36.27399500408234 -2 4 -3
1278 426 2 0.5242 3.32756389684675 2.602666849759108 37.015860246786346 -2 4 -3
2033 678 2 0.5242 1.8272506923999614 0.7228729614997245 3.758378880817116 2 0 0
2032 678 1 -1.0484 1.7163623190709636 1.3738498486210364 4.330319400840434 2 0 0
2034 678 2 0.5242 2.1446975227561853 2.201235995315557 3.899825140812613 2 0 0
1117 373 1 -1.0484 4.021187420238155 2.716025936535807 1.4548102725470307 -1 2 -3
4030 1344 1 -1.0484 1.239951895687973 0.27982436469214156 0.9727608719294791 2 1 0
1163 388 2 0.5242 35.17571942876056 1.3700351351535358 2.305398271357708 3 2 -1
1162 388 1 -1.0484 34.89396522433703 2.259176401514786 1.9358162279199038 3 2 -1
4032 1344 2 0.5242 1.5509513136754207 1.0703053740445527 0.49212825153079276 2 1 0
2060 687 2 0.5242 3.45007147799317 3.416122588643809 2.4767532758397657 -3 2 -1
4196 1399 2 0.5242 36.67177194175253 0.10075812914533044 1.9990248349693545 -3 -1 0
2910 970 2 0.5242 1.4647121627707798 5.9243358129751655 36.55901903497983 6 1 -3
1118 373 2 0.5242 4.563507528350217 3.2087199725832396 0.8233668679191448 -1 2 -3
1119 373 2 0.5242 4.781278986784683 2.3753054460167746 1.9860930581014289 -1 2 -3
3803 1268 2 0.5242 37.026628533629044 2.8717768308660725 6.087853400707766 2 2 3
4127 1376 2 0.5242 5.9202598131087365 34.808142140413025 3.3403112658712715 0 -2 -2
585 195 2 0.5242 3.1399490223566686 0.3869187400495856 5.987683059785497 2 2 -2
583 195 1 -1.0484 3.818364927971538 -0.08731942619129995 6.500409730402511 2 2 -2
584 195 2 0.5242 4.589188641266104 -0.06461575095237881 5.918864327563086 2 2 -2
18 6 2 0.5242 9.280791161868029 1.000701584713836 7.184990435135748 -1 1 3
16 6 1 -1.0484 9.253072343799772 0.39985883073274386 7.907238747204568 -1 1 3
414 138 2 0.5242 6.578944835651042 0.9853721474968804 1.736800122044026 0 -3 0
413 138 2 0.5242 5.559497551793387 0.8864451763991357 3.0019769897639588 0 -3 0
412 138 1 -1.0484 6.13899356193792 1.5715358036435585 2.56285519935045 0 -3 0
2847 949 2 0.5242 12.862161705894566 6.11479700575763 35.81515783683205 2 -1 -1
17 6 2 0.5242 9.61455925080323 36.653987165958746 7.560077652525024 -1 0 3
4252 1418 1 -1.0484 9.789808054276493 1.3594726298217974 4.37039377534925 -4 5 4
4253 1418 2 0.5242 10.794909348605715 1.2412296317124363 4.393596679500855 -4 5 4
2845 949 1 -1.0484 13.586980352614692 6.899497723511123 35.62125964396896 2 -1 -1
2846 949 2 0.5242 13.811619086396004 6.559583965775881 34.71524895668575 2 -1 -1
686 229 2 0.5242 12.286834371336521 5.766755590611526 2.174097024737177 0 -1 -3
685 229 1 -1.0484 13.207648619741164 5.55800427397223 1.9982387942849416 0 -1 -3
687 229 2 0.5242 13.31152710970805 5.838861800096002 1.1224477417734922 0 -1 -3
1701 567 2 0.5242 14.451977370735111 3.454582459295216 0.34519813907527414 1 2 0
1700 567 2 0.5242 13.803368282874406 4.092346630573581 1.6417107596037266 1 2 0
3375 1125 2 0.5242 14.287672293799007 3.6821463612708913 32.89266073501478 2 -2 -1
3373 1125 1 -1.0484 13.470921123159998 4.116611863024157 33.07040500856355 2 -2 -1
3374 1125 2 0.5242 13.000394995871495 3.559396150484375 33.72942405534462 2 -2 -1
576 192 2 0.5242 9.863189894608636 4.694632839134446 2.754276256757065 3 1 5
611 204 2 0.5242 15.211287826816925 4.714460510354526 36.03840709586775 -1 -1 -1
3775 1259 1 -1.0484 12.669460327290203 2.368882631913479 3.3328123196642516 5 -2 -2
3777 1259 2 0.5242 13.260169441099897 2.592712062071743 2.5540806876496007 5 -2 -2
612 204 2 0.5242 16.328940972183293 3.867652987885552 36.45070748381808 -1 -1 -1
610 204 1 -1.0484 15.320772608572355 3.8247335382072034 36.276160050368425 -1 -1 -1
3054 1018 2 0.5242 14.474558337703677 0.843058324913521 1.8324036193770366 -3 1 2
1699 567 1 -1.0484 14.351677721157229 3.1848432904772883 1.310352013831268 1 2 0
4482 1494 2 0.5242 13.831195366843843 6.457781383557425 3.6295260045423188 3 0 -1
4199 1400 2 0.5242 16.01261209260166 3.8725825835471333 2.284574488220929 -5 1 -1
2507 836 2 0.5242 19.773483752247987 4.43877898728174 1.8076850852298034 0 1 2
2508 836 2 0.5242 20.435356150068163 5.821448156987672 1.3139170204921342 0 1 2
2506 836 1 -1.0484 19.598882347498485 5.424964243241415 1.6358086848011941 0 1 2
2452 818 1 -1.0484 19.782672165273418 4.712178631289331 5.983233545133388 -2 -4 -1
3620 1207 2 0.5242 22.907562476316098 5.078554699366361 1.2919812448920829 0 0 0
3621 1207 2 0.5242 23.302342557475406 3.9292109623737765 2.3073303685488784 0 0 0
3481 1161 1 -1.0484 22.124039588323924 6.558994098251968 0.7847975334211943 1 3 -3
3619 1207 1 -1.0484 23.294494240351103 4.079699662693587 1.3904370053218995 0 0 0
3584 1195 2 0.5242 22.297276890020797 2.6533937597478787 0.7356364237342585 0 0 2
2892 964 2 0.5242 20.592852032123716 0.6342624585751148 36.135539529033366 2 2 1
3357 1119 2 0.5242 18.987653043731793 2.20738839643565 2.6190036753474035 5 -3 3
3356 1119 2 0.5242 19.807531039831165 1.6730559832304335 3.7026374882987474 5 -3 3
3355 1119 1 -1.0484 19.808237936415562 2.2948031080880416 2.942872485452131 5 -3 3
3585 1195 2 0.5242 21.035181955304985 1.908729626922582 1.0673766315956283 0 0 2
3583 1195 1 -1.0484 21.66047399231417 2.1071079739349408 0.36245922104008965 0 0 2
1852 618 1 -1.0484 16.280594825039927 36.864006210660584 5.072603651572015 0 -3 1
1854 618 2 0.5242 15.442413190415202 -0.039203700283291315 5.393715417510931 0 -2 1
1853 618 2 0.5242 16.463731126038738 0.3508078012925316 4.390092264725389 0 -2 1
2718 906 2 0.5242 21.27544198798497 3.8751787017469903 5.32666115489408 -2 -5 -2
2717 906 2 0.5242 21.59474222743002 2.886957736328749 4.129842176070223 -2 -5 -2
2716 906 1 -1.0484 21.96273641754632 3.2816506126273004 4.907159857274299 -2 -5 -2
4198 1400 1 -1.0484 16.909927595459255 4.173285947015312 2.558462541394208 -5 1 -1
514 172 1 -1.0484 25.340424731195636 4.659008548937738 36.911017998896384 0 0 -4
515 172 2 0.5242 26.06116456166686 3.968993236568485 37.00778539296765 0 0 -4
516 172 2 0.5242 24.615580527880542 4.260613327781609 0.30476664650598534 0 0 -3
1176 392 2 0.5242 26.29312103478317 5.785699386432912 0.3391310964034699 2 2 3
1174 392 1 -1.0484 26.740723238127178 6.542384470955718 0.9677337487728084 2 2 3
1175 392 2 0.5242 27.437519135824424 6.035158150384622 1.3166181525920346 2 2 3
1094 365 2 0.5242 28.118072404778164 3.128679978411346 36.82285386729278 0 6 3
1095 365 2 0.5242 26.76043239721939 2.5139176031585238 36.21099842079333 0 6 3
43 15 1 -1.0484 26.783870238619414 1.1894525620078042 2.205339918374895 -6 -1 1
1093 365 1 -1.0484 27.23979188931444 2.96497645279251 37.02695604443331 0 6 3
2678 893 2 0.5242 23.369856557654508 3.096729281167021 4.221405433329972 -2 0 0
2677 893 1 -1.0484 24.01147186546746 2.4975371189061604 3.6374464898629775 -2 0 0
44 15 2 0.5242 26.233553701366493 1.914472170695682 2.234103020083856 -6 -1 1
45 15 2 0.5242 27.6330848647827 1.6792314374127613 2.0035226684762626 -6 -1 1
4376 1459 2 0.5242 27.70822446508276 6.4296671038436894 36.60253395434846 -1 3 -3
4375 1459 1 -1.0484 28.216500508980147 6.011509751785912 35.84979173691043 -1 3 -3
4488 1496 2 0.5242 28.162072450861658 5.459428438359384 5.356859201449793 -1 1 4
4486 1496 1 -1.0484 27.39375456928891 5.005326616709751 5.09471971025815 -1 1 4
4487 1496 2 0.5242 27.659453586740486 4.167630471212103 4.768241598294028 -1 1 4
4377 1459 2 0.5242 29.15770817296813 6.481365277471774 35.76380728845036 -1 3 -3
2679 893 2 0.5242 24.359202878293495 1.9514565007797735 4.4116295903688325 -2 0 0
376 126 1 -1.0484 28.94447062490614 2.8145080581112496 3.7007269887644165 -1 2 -1
949 317 1 -1.0484 30.812052168858067 1.5782554283331944 1.7824726740434587 3 -3 -1
951 317 2 0.5242 31.586431960481224 1.964139162675019 2.33593561177475 3 -3 -1
950 317 2 0.5242 30.952322294268864 0.6426870543030225 1.7427018789547084 3 -3 -1
2728 910 1 -1.0484 30.49410015707825 36.128754792620185 4.070819413721947 0 -1 1
2730 910 2 0.5242 31.089877471313013 36.71491697468423 3.4759492324339814 0 -1 1
2495 832 2 0.5242 1.1112821873041765 6.009892751168561 4.386842656186997 1 1 4
2494 832 1 -1.0484 0.726779456629976 5.546057251069609 3.720965339496851 1 1 4
1978 660 1 -1.0484 33.76818894109447 5.5180766400024055 3.0633152918053135 3 -1 -1
1980 660 2 0.5242 33.09269066468015 6.014609067837942 2.628497149723116 3 -1 -1
1979 660 2 0.5242 34.462258295067144 5.361293111645518 2.4252852676384578 3 -1 -1
4179 1393 2 0.5242 33.70183833797648 2.7212879432640364 2.68783209844897 0 1 1
4177 1393 1 -1.0484 32.952490618116094 3.0618616892214976 3.404524409064543 0 1 1
4178 1393 2 0.5242 33.12335473617602 4.080949211653265 3.3267461951429786 0 1 1
4238 1413 2 0.5242 35.79622200528835 3.9526271024852155 1.9982112699026788 -4 0 -1
4237 1413 1 -1.0484 36.02463731900058 4.796659225332653 1.629151372104744 -4 0 -1
3494 1165 2 0.5242 35.73666653021707 36.214728341264866 36.77134809771921 0 2 -4
374 125 2 0.5242 30.463946962780014 2.3600331889896937 0.41283081793968734 0 0 -2
3074 1025 2 0.5242 33.73979667870043 0.13852666903861205 36.08247112473443 -1 3 0
776 259 2 0.5242 31.538771633649645 35.026504336013296 1.4474757543039984 0 -3 3
775 259 1 -1.0484 31.772460705541125 35.90654038996273 1.615228593427797 0 -3 3
4195 1399 1 -1.0484 35.86167962699918 37.00713138326319 2.3665252510739143 -3 -2 0
1164 388 2 0.5242 34.45474898918268 2.0649073193147927 1.0463934700876336 3 2 -1
2496 832 2 0.5242 1.33361943146365 4.7700017757766675 3.489706473974183 1 1 4
4031 1344 2 0.5242 0.6484520916611003 -0.0789354064756509 0.15810514227991895 2 1 0
4197 1399 2 0.5242 35.87287695094576 -0.11028178250056442 3.3513892986161897 -3 -1 0
2061 687 2 0.5242 3.4998983036502342 3.2736042329274873 4.135581624539604 -3 2 -1
2169 723 2 0.5242 4.032997320533628 8.512577445594019 2.2410210977365344 2 0 1
3008 1003 2 0.5242 5.3784957141186 6.241651455804027 6.252188974403721 3 -1 1
3007 1003 1 -1.0484 5.7729187351092595 5.35865792457255 6.182132486542203 3 -1 1
3009 1003 2 0.5242 6.735703498570022 5.559236948893412 6.244168752332302 3 -1 1
1319 440 2 0.5242 0.0660175825827522 12.053859504174515 3.6486785419865773 -1 -1 -3
2168 723 2 0.5242 4.912200940730382 9.415937933740187 3.2000921632050567 2 0 1
2167 723 1 -1.0484 3.9285915413416133 8.87878762181211 3.167064218879823 2 0 1
1187 396 2 0.5242 4.267515130312408 7.89014325648173 36.98000237659877 0 -2 0
1186 396 1 -1.0484 3.6459013645472966 7.9382162810057935 0.4333231710111526 0 -2 1
693 231 2 0.5242 0.5424528975672109 8.54210378538143 2.7732689174145544 -1 -3 1
691 231 1 -1.0484 37.030030008725724 8.853527299578376 2.2822307179604406 -2 -3 1
255 85 2 0.5242 2.6038622268555565 9.398763427137641 -0.05020301791683579 4 0 4
253 85 1 -1.0484 2.065489829257241 10.180805919834079 36.790794379945744 4 0 3
1318 440 1 -1.0484 36.94587911054499 11.931023484116356 4.524551305697332 -2 -1 -3
3618 1206 2 0.5242 8.203564728382009 7.107607713698064 3.455897421116286 -2 -1 2
3616 1206 1 -1.0484 7.502711875137851 7.097095882704371 4.198660770799427 -2 -1 2
3617 1206 2 0.5242 7.031662086459061 7.991002330990822 3.955913324828164 -2 -1 2
1188 396 2 0.5242 3.278663007786 7.056146429471402 0.6065376667665622 0 -2 1
3977 1326 2 0.5242 7.927211920085188 3.824012701550108 4.351986222880906 -1 0 -1
3976 1326 1 -1.0484 8.46783784785084 3.8044493787394016 3.6232733131734984 -1 0 -1
3978 1326 2 0.5242 8.682099575064676 2.850296464082784 3.8113781972595735 -1 0 -1
3305 1102 2 0.5242 7.378390795316321 12.431703330469395 4.785266768297105 1 0 1
3304 1102 1 -1.0484 7.2410361208887055 11.43198095339149 5.027478781734368 1 0 1
3306 1102 2 0.5242 8.218026727055385 11.081902615508938 4.994027966008406 1 0 1
2353 785 1 -1.0484 8.900768426564396 7.623712729981046 0.09400092885487937 1 2 4
2355 785 2 0.5242 9.317385297726117 7.722916082045213 1.1046335971000034 1 2 4
2940 980 2 0.5242 7.574794443212493 5.785245739696179 1.7602132527175547 2 2 3
2938 980 1 -1.0484 7.300532229272331 4.884717911670414 1.2462415904668271 2 2 3
2939 980 2 0.5242 7.601925167689437 4.252860441151089 1.8535445350828592 2 2 3
575 192 2 0.5242 10.466613746952394 4.443145041080077 1.4836785020115366 3 1 5
574 192 1 -1.0484 10.28123895896105 5.210905062174547 2.030680631732139 3 1 5
2354 785 2 0.5242 9.645376992723781 7.648562751934795 36.785355849692955 1 2 3
487 163 1 -1.0484 8.265913872358473 13.716922604671412 3.5456365674573362 1 -1 2
3210 1070 2 0.5242 6.4916873727226285 10.236177697317059 2.3898453313577654 1 1 -1
3208 1070 1 -1.0484 5.993178196735107 9.99890102400096 3.1475616247823344 1 1 -1
4103 1368 2 0.5242 10.254615071011914 7.944925789568389 2.845061991800668 1 1 -5
4102 1368 1 -1.0484 9.347636418142203 8.21708992303816 2.596373367679929 1 1 -5
4104 1368 2 0.5242 9.633074025028533 9.175649423574741 2.531582000277732 1 1 -5
2388 796 2 0.5242 14.358959264884062 12.002489739058015 4.795965610786749 1 1 -3
2386 796 1 -1.0484 13.954043665261322 11.601516108300146 3.921049844594889 1 1 -3
710 237 2 0.5242 16.817594178109367 9.974747489426003 4.942454187115679 0 2 2
709 237 1 -1.0484 17.751634226017238 10.084378522652655 4.586997535464532 0 2 2
711 237 2 0.5242 18.088432485662928 9.207019141037957 4.257288834648448 0 2 2
1120 374 1 -1.0484 13.565677374388436 12.139595103528919 0.02990769840730964 -2 -1 2
1902 634 2 0.5242 11.320798829306451 9.634472691088067 4.467484712227068 2 -2 3
2037 679 2 0.5242 14.899442031900946 8.763933874390132 4.545568400088836 3 1 2
1121 374 2 0.5242 13.038949903087651 11.459602599979481 36.71564174606736 -2 -1 1
2035 679 1 -1.0484 15.249190992239663 9.483693535687364 5.026025658637314 3 1 2
2036 679 2 0.5242 14.60815122170695 10.302984260813483 4.799453188871367 3 1 2
571 191 1 -1.0484 16.529304766154286 9.10461651534028 0.5483259542366433 2 4 -1
1122 374 2 0.5242 14.193115641681196 12.541470069853245 36.69312902372022 -2 -1 1
2387 796 2 0.5242 14.806740569239638 11.342249892498142 3.3330500977741413 1 1 -3
965 322 2 0.5242 12.733684048569195 12.590181474838714 1.578093145050524 -1 3 4
573 191 2 0.5242 15.643137501379877 8.63176691760616 0.5281773921769476 2 4 -1
572 191 2 0.5242 16.360205669957093 9.770878321796525 1.2373624213416021 2 4 -1
2453 818 2 0.5242 20.271697724314752 5.295479965940933 6.530086469097573 -2 -4 -1
3483 1161 2 0.5242 21.920199606481386 7.46786026461238 1.1349110580484496 1 3 -3
3025 1009 1 -1.0484 18.941362393643722 7.817110971948721 7.890337281104124 2 -3 -2
3027 1009 2 0.5242 18.428516194452527 6.9958600193086875 8.080534663626768 2 -3 -2
328 110 1 -1.0484 19.344825661289615 6.644305906253163 4.1083508548144305 2 -1 -2
2165 722 2 0.5242 21.321464559981354 7.710017460710783 3.3042419243254093 0 -3 -1
330 110 2 0.5242 19.490754849261723 5.722613389189809 4.552714637362575 2 -1 -2
329 110 2 0.5242 18.98093608777462 6.375531913310681 3.1948926657050483 2 -1 -2
3351 1117 2 0.5242 22.809868754745914 9.908038301116754 3.5050451159542204 -2 -1 4
3233 1078 2 0.5242 21.51920928484546 8.492542568688505 5.679788361792615 -1 -3 -1
3234 1078 2 0.5242 22.594897013440203 9.251631407859218 5.303415847818735 -1 -3 -1
3232 1078 1 -1.0484 22.36595371809964 8.53940683010343 5.969904310303839 -1 -3 -1
2223 741 2 0.5242 18.946768983433035 11.41865125443168 7.260945256377387 1 0 -1
2166 722 2 0.5242 20.317179289839075 8.791042466866543 3.1582025626801524 0 -3 -1
3349 1117 1 -1.0484 23.060192605872913 10.386372946134212 4.289328276700238 -2 -1 4
3755 1252 2 0.5242 21.83908637014046 10.279966762078875 0.7153914110491483 2 3 4
3756 1252 2 0.5242 20.32680561229125 10.54519819030562 0.15712272371320513 2 3 4
2222 741 2 0.5242 17.815478055048363 11.268610943283095 5.924233107015205 1 0 -1
2221 741 1 -1.0484 18.103362246654697 11.871756979113714 6.763991096556372 1 0 -1
3754 1252 1 -1.0484 21.090489235086462 9.982603256498384 0.003445935893903518 2 3 4
2164 722 1 -1.0484 21.238291054715482 8.56069144025439 2.869839526977497 0 -3 -1
2237 746 2 0.5242 24.582425014961085 10.348719917933916 2.421184998302545 4 -2 2
2683 895 1 -1.0484 30.602772421993347 4.738690828549321 2.219644708159883 2 1 -2
3172 1058 1 -1.0484 25.33179883511339 7.183951990871025 30.966703425813886 -2 2 3
3173 1058 2 0.5242 25.418557033638603 7.123181878830072 30.053238667450756 -2 2 3
1621 541 1 -1.0484 29.074048648796747 7.524041172745791 3.164326780666763 1 4 1
1623 541 2 0.5242 28.317997099745263 6.952887277764626 2.997578866838034 1 4 1
2236 746 1 -1.0484 23.914486214673666 10.101061239461472 1.783488248518942 4 -2 2
2238 746 2 0.5242 24.418721678874924 10.376483855010799 1.0654494462481408 4 -2 2
1823 608 2 0.5242 23.979884608278066 9.022737478850052 36.54325328948095 2 1 -1
1822 608 1 -1.0484 24.65989002896595 8.55999380434439 36.010081040165694 2 1 -1
1212 404 2 0.5242 28.344828520248544 10.543992346053852 3.6018475149310047 4 0 -1
1210 404 1 -1.0484 27.83905361932762 9.671969191851055 3.435916465726618 4 0 -1
1622 541 2 0.5242 28.614977290526134 8.48217312528601 3.238457671971759 1 4 1
1211 404 2 0.5242 27.572030337368084 9.289565559172807 4.4505862233584805 4 0 -1
1824 608 2 0.5242 24.519113685148398 7.678763285012016 36.30452392889236 2 1 -1
63 21 2 0.5242 26.99767553172053 8.200446998033197 0.8131129940220991 -1 1 -2
61 21 1 -1.0484 27.062240725756464 9.173925069653336 0.7741130621561223 -1 1 -2
62 21 2 0.5242 27.786321662228527 9.268935403795926 1.254278579796654 -1 1 -2
1915 639 1 -1.0484 31.941397170914293 7.194960239546016 2.1216691025391783 -2 -2 0
3733 1245 1 -1.0484 33.9871442972748 8.818095743549266 2.158231710463174 -3 1 2
3735 1245 2 0.5242 34.84881659186109 8.598324327377888 1.841951218526562 -3 1 2
3734 1245 2 0.5242 33.75081320913504 7.839781361899346 2.20829738532114 -3 1 2
3931 1311 1 -1.0484 28.775533135620588 8.969086278843891 35.58516275495176 4 -2 -1
3933 1311 2 0.5242 28.156761532629186 9.431867616702567 36.10646081017383 4 -2 -1
934 312 1 -1.0484 30.50524348465853 9.291498301114995 5.271512020474131 0 1 5
935 312 2 0.5242 31.182982956598607 9.894445956423974 5.210764577141778 0 1 5
3120 1040 2 0.5242 30.814387219479947 11.724441887146604 2.7094481756299493 1 -4 1
1916 639 2 0.5242 31.935948480045546 8.12372078070025 1.7827792875833148 -2 -2 0
3118 1040 1 -1.0484 29.937700427034606 11.541914787013146 2.5415290275966345 1 -4 1
3119 1040 2 0.5242 29.968228483937093 11.541088067429753 1.581966678057276 1 -4 1
1917 639 2 0.5242 31.22484394913442 6.865872158201164 1.47728833507414 -2 -2 0
2296 766 1 -1.0484 32.57087939026539 11.340120704969127 5.638746324096507 -3 3 1
2298 766 2 0.5242 33.15252017719906 11.949358223530577 5.426236648175559 -3 3 1
936 312 2 0.5242 30.328668671298452 8.962359750457217 4.394737136211027 0 1 5
2784 928 2 0.5242 33.939741273810064 10.691991212229778 4.537666231163492 1 0 2
1320 440 2 0.5242 36.089012365616924 11.439627287093096 4.2569603298735315 -2 -1 -3
692 231 2 0.5242 0.02898229012237863 8.771892779718225 1.40131995657225 -1 -3 1
254 85 2 0.5242 1.2351552535794401 9.750463197735947 36.73822146617127 4 0 3
2782 928 1 -1.0484 34.69989269185106 10.742724606571139 3.966395933057724 1 0 2
2783 928 2 0.5242 34.70603931160412 9.995617859378255 3.230350644068628 1 0 2
4239 1413 2 0.5242 36.63354406024116 5.115353377640262 2.4630527400298847 -4 0 -1
3946 1316 1 -1.0484 4.638403782537694 12.525307318841781 0.9476600203066441 -3 -1 3
3948 1316 2 0.5242 4.316417236606221 12.19629005870489 1.8887888182030776 -3 -1 3
4043 1348 2 0.5242 3.341185157161736 17.590762971144194 2.5760332860157815 3 0 2
3236 1079 2 0.5242 4.978294842627712 15.24768100264609 2.722413194176889 -1 1 4
4042 1348 1 -1.0484 3.7285974835890605 16.748186800078923 2.3909938010411445 3 0 2
4044 1348 2 0.5242 3.0230238912919596 16.190993429552346 1.8527060814794996 3 0 2
3237 1079 2 0.5242 5.038536266666002 14.011988935289873 1.92935054169142 -1 1 4
3235 1079 1 -1.0484 5.562305186458201 14.413537279616449 2.6808555238206644 -1 1 4
2912 971 2 0.5242 4.058671961623897 13.960904216298786 4.8354379170546515 4 -4 2
2911 971 1 -1.0484 3.358709139584404 14.48996626349938 5.298711847927408 4 -4 2
2913 971 2 0.5242 2.7472774468017436 13.770782667849794 5.588271945553789 4 -4 2
1912 638 1 -1.0484 3.1486267002054817 12.043783827923596 2.9872910465505695 2 -2 1
1914 638 2 0.5242 3.4084018375198015 11.052109964736236 3.3134328324657982 2 -2 1
489 163 2 0.5242 7.431917541809763 13.990840853121952 3.086618536133382 1 -1 2
361 121 1 -1.0484 0.513120166078248 11.633720678231589 2.0272929668815496 -1 -2 0
363 121 2 0.5242 0.2391968612457251 10.769672921456008 2.3614933279392307 -1 -2 0
4464 1488 2 0.5242 2.146515202777866 16.622689289664866 5.626538083010019 1 -1 3
1568 523 2 0.5242 36.465802701079916 19.690105103575817 5.117244562736001 -2 -1 2
1913 638 2 0.5242 2.250137868068341 11.964810543326548 2.709457632980936 2 -2 1
1940 647 2 0.5242 8.619696594733966 17.193871880149 5.152544216273196 -3 0 -2
3762 1254 2 0.5242 12.577033543628831 15.976010855087004 4.9159801055436105 0 -1 3
488 163 2 0.5242 9.050842078990366 13.764262492473462 2.992413034462557 1 -1 2
2673 891 2 0.5242 11.287734482529409 15.773998598062597 0.27452607213025315 5 1 2
2672 891 2 0.5242 9.949423795019918 16.733849809818615 0.7019656113530197 5 1 2
2671 891 1 -1.0484 10.51128598069207 16.316355438066516 -0.11906564944854593 5 1 2
2548 850 1 -1.0484 10.036396536900087 10.882545876948917 2.193620748936929 -3 1 3
3010 1004 1 -1.0484 9.62979562286222 13.33537639460272 0.529975012216639 1 1 -2
3012 1004 2 0.5242 9.79534777195474 14.226204678059078 0.514064580699477 1 1 -2
3224 1075 2 0.5242 13.709232025300336 15.887442229923721 7.1135099209733905 -1 1 0
1926 642 2 0.5242 9.936019007338999 19.028764713158136 5.081681774561128 -3 0 3
1924 642 1 -1.0484 10.847248183859302 19.148273048107747 5.609095655627076 -3 0 3
1939 647 1 -1.0484 8.340013074670136 17.989803471217943 4.616993494576816 -3 0 -2
1941 647 2 0.5242 7.340268275866663 18.10251939315781 4.763805442207395 -3 0 -2
3760 1254 1 -1.0484 12.023618639109554 15.231136046793056 5.131857072899394 0 -1 3
3761 1254 2 0.5242 12.606409047596843 14.448844025870411 5.472891433331094 0 -1 3
1603 535 1 -1.0484 11.584571709130667 20.926191282809782 1.64084160360739 3 2 -4
1604 535 2 0.5242 11.964405827335229 20.400007747994074 2.4647584490783117 3 2 -4
1605 535 2 0.5242 10.613469887379411 20.791224108602947 1.9138648699910088 3 2 -4
2550 850 2 0.5242 10.964179141862049 11.334162468423308 2.1418642721357974 -3 1 3
3972 1324 2 0.5242 19.558667566428262 12.628408541325918 5.319084895644033 -1 -2 -4
3668 1223 2 0.5242 9.6069451487392 11.928163599388613 7.014453337761385 7 -2 0
3667 1223 1 -1.0484 9.991657388588186 11.787769076838646 6.063705742621777 7 -2 0
2549 850 2 0.5242 9.532580906940517 11.41675395031819 1.5506600979023821 -3 1 3
3669 1223 2 0.5242 10.195052587192597 12.657560507064549 5.812804411469198 7 -2 0
1803 601 2 0.5242 12.254997198355175 14.277814644116306 1.2249930230392287 -1 0 -2
1801 601 1 -1.0484 12.669525710913822 15.12483248543448 0.9772191229620193 -1 0 -2
1802 601 2 0.5242 13.217340243718084 14.864556635335987 0.21915523587537467 -1 0 -2
444 148 2 0.5242 15.318116813564657 13.421274691035777 6.265436160148554 -3 1 4
442 148 1 -1.0484 15.167924653993397 12.532870712502897 5.928182129882328 -3 1 4
3223 1075 1 -1.0484 14.522388385387453 15.844675788007258 6.464344829201934 -1 1 0
443 148 2 0.5242 15.199062139631652 12.03948663826355 6.880679229245335 -3 1 4
3432 1144 2 0.5242 15.911917820317953 12.588604234443176 2.3328811525810336 -3 2 1
964 322 1 -1.0484 12.041384980634563 12.635830762849864 2.2811238977130097 -1 3 4
966 322 2 0.5242 12.502580349434943 12.426316431835533 3.1012531884450443 -1 3 4
3430 1144 1 -1.0484 16.07113885877582 11.5850299691014 2.453525778886155 -3 2 1
2732 911 2 0.5242 15.862530365021323 15.009698617058678 1.7846554808040642 0 1 -1
755 252 2 0.5242 16.5453581350906 14.286789313981574 4.018728752856415 1 -1 1
3971 1324 2 0.5242 18.635930122532073 13.805048684038088 4.698266991003773 -1 -2 -4
3970 1324 1 -1.0484 19.62781689452496 13.391196187598204 4.702463173639015 -1 -2 -4
756 252 2 0.5242 17.390363569819726 14.703213139539844 5.394442782216432 1 -1 1
754 252 1 -1.0484 17.42134140699004 14.525542797789923 4.362203767084319 1 -1 1
3350 1117 2 0.5242 23.142692683686693 11.37486976744906 3.8556094076619303 -2 -1 4
676 226 1 -1.0484 17.63851600392431 14.428908453596263 6.89272629559932 -2 4 2
678 226 2 0.5242 17.58610037504266 13.303627700653402 6.697564243443797 -2 4 2
2659 887 1 -1.0484 21.59088046976542 15.135662581095357 4.754290949567999 -3 -1 2
1173 391 2 0.5242 24.354529829631456 13.682158196513193 4.547416558715932 2 -2 -1
1171 391 1 -1.0484 23.696169300544167 13.033436821024956 4.284457426057941 2 -2 -1
2661 887 2 0.5242 22.35793464388878 14.57476567817865 4.990548956961239 -3 -1 2
2993 998 2 0.5242 17.966845838827233 15.885968058038149 3.544431455917256 -1 -1 1
2992 998 1 -1.0484 18.048513205721484 16.852088912977372 3.1781638331910873 -1 -1 1
2267 756 2 0.5242 18.57867848958729 14.510555351550865 36.780438136346454 3 -2 -3
1016 339 2 0.5242 22.042621946732815 15.117934326354835 3.1511590427344562 3 1 2
1015 339 1 -1.0484 22.071491194427935 15.215568635551728 2.1045300081762606 3 1 2
1017 339 2 0.5242 21.334195076566267 15.901307802898756 1.8187429789659106 3 1 2
2660 887 2 0.5242 20.792665452970837 14.419347300955572 4.7397182795511705 -3 -1 2
2266 756 1 -1.0484 18.989254674676005 15.293241727306011 36.34184054842249 3 -2 -3
1172 391 2 0.5242 23.464757016721336 13.21016766568564 3.382944188637332 2 -2 -1
2560 854 1 -1.0484 27.389490322902624 13.765498233246205 0.5915986399844249 -4 2 2
2561 854 2 0.5242 26.57050751218934 13.587616677317154 0.06742312807901107 -4 2 2
2562 854 2 0.5242 27.24842711633247 14.57313778897392 1.214721326073209 -4 2 2
3163 1055 1 -1.0484 25.541342515940528 15.133395745247498 4.608950938242833 0 2 -1
523 175 1 -1.0484 26.32819098094515 13.108236639334887 6.129303731547303 1 1 5
525 175 2 0.5242 26.081497951765506 13.967290328814011 5.8147112555854505 1 1 5
3308 1103 2 0.5242 24.64413566548104 13.082542431522736 36.32783904010809 -4 -1 2
3307 1103 1 -1.0484 24.72878846325432 13.179083101380046 0.05171629025747912 -4 -1 3
3309 1103 2 0.5242 24.466330032320954 14.2072001244157 0.2638002185616053 -4 -1 3
3379 1127 1 -1.0484 26.740404189214715 16.378432838904438 2.2634247096982776 -4 2 0
3380 1127 2 0.5242 25.75990703968495 16.384941270402187 2.3102789689794907 -4 2 0
3381 1127 2 0.5242 27.075948051251927 17.22363761424926 2.6736300867315466 -4 2 0
1264 422 1 -1.0484 28.820916252636657 17.26151828779277 0.8222741515360277 1 2 3
1266 422 2 0.5242 27.91223376358877 17.076399200948963 1.2775217229640783 1 2 3
3165 1055 2 0.5242 25.42878112926656 16.001909330507683 5.2276312103549305 0 2 -1
3164 1055 2 0.5242 26.451004725762523 15.179196285329324 4.385769899930402 0 2 -1
2830 944 1 -1.0484 24.152334842622523 16.889096670321308 2.1694298172690307 1 2 1
2831 944 2 0.5242 23.517690624900418 16.18602753118734 1.998812219876644 1 2 1
2697 899 2 0.5242 34.6193750059851 14.452265714860905 8.318470257381037 -5 2 -1
1793 598 2 0.5242 30.94314778102573 15.105417744286708 0.9879112812031974 0 2 1
744 248 2 0.5242 34.929972280435436 12.192894466187143 -0.11361057337622782 3 9 5
742 248 1 -1.0484 33.923028182267046 12.339706515975756 37.03283138113104 3 9 4
743 248 2 0.5242 33.4545097938661 11.963344294714098 0.698107970985398 3 9 5
2572 858 1 -1.0484 36.4464254321627 15.016890737556402 6.984471743055175 -2 5 3
2574 858 2 0.5242 35.65466068613889 15.119715935532366 6.351222616995156 -2 5 3
1794 598 2 0.5242 30.599551876333418 14.360098829847235 2.234233692421325 0 2 1
1323 441 2 0.5242 33.308517907520915 14.851411292424556 6.0742804696548065 0 0 2
1321 441 1 -1.0484 33.92711974086377 15.313114706388914 5.4719064293221775 0 0 2
1322 441 2 0.5242 33.42608949860719 15.681096269205003 4.74387784580777 0 0 2
1792 598 1 -1.0484 30.214473351173957 14.967444711720958 1.6430560053724959 0 2 1
2866 956 1 -1.0484 29.782378301625567 17.561281295458812 6.800188694445484 -1 -1 -1
1265 422 2 0.5242 29.400885124728845 16.57990515878534 1.2644614847753541 1 2 3
2329 777 1 -1.0484 32.17722825350434 17.48012559091866 3.939017819249073 -3 0 -3
2330 777 2 0.5242 31.229743628534692 16.9818321795588 3.7555812873363843 -3 0 -3
113 38 2 0.5242 33.058745519595014 10.857219683832206 2.5077502567464554 -1 1 0
112 38 1 -1.0484 32.74684261776696 11.801228472405452 2.208989157875534 -1 1 0
114 38 2 0.5242 33.256386399815085 12.37925038312303 2.8348615694536203 -1 1 0
1454 485 2 0.5242 29.56790439098362 11.777997688248327 36.23279942661874 0 -2 -1
4407 1469 2 0.5242 28.77211855337079 17.65319535725817 36.498463155585235 -1 -1 -4
2573 858 2 0.5242 -0.11494899902461878 15.702351439036347 6.641809080067999 -1 5 3
362 121 2 0.5242 -0.006106829137106071 11.849243677864875 1.2045966108710715 -1 -2 0
962 321 2 0.5242 1.4788633309681767 17.281423139997326 0.9749017098564363 0 -1 -2
961 321 1 -1.0484 1.7221347622682954 16.516542240296125 0.3719180531006696 0 -1 -2
963 321 2 0.5242 1.1967115102634511 16.778692415110473 36.79759122520976 0 -1 -3
492 164 2 0.5242 2.0694782113866284 19.343328808544943 1.1716163643139634 -4 -1 2
947 316 2 0.5242 0.9580109153374274 22.052737336041893 7.093569752643303 0 0 1
1569 523 2 0.5242 0.2885531324596254 20.751136308343813 5.311699252154877 -1 -1 2
1567 523 1 -1.0484 36.45563643566442 20.56283180186315 5.197693721654493 -2 -1 2
2310 770 2 0.5242 36.37852079467983 22.560036776454965 5.278878952352635 -1 -1 -2
490 164 1 -1.0484 1.6019644416354808 18.70310681669182 1.9228398703253426 -4 -1 2