LAMMPS data file via write_data, version 23 Jun 2022, timestep = 2000822

4500 atoms
2 atom types
3000 bonds
1 bond types
1500 angles
1 angle types

0.7865619015738048 36.200438098429686 xlo xhi
0.7787347191054046 36.20026528088751 ylo yhi
0.7542747738820097 36.19972522611786 zlo zhi

Masses

1 15.9994
2 1.00794

Pair Coeffs # lj/cut/tip4p/long/gpu

1 0.16275 3.16435
2 0 0

Bond Coeffs # harmonic

1 250 0.9572

Angle Coeffs # harmonic

1 60 104.52

Atoms # full

1072 358 1 -1.0484 4.732220667584331 3.7901957203685295 5.432874091565431 1 1 0
1073 358 2 0.5242 3.910488404893047 3.18509684475828 5.521255792965718 1 1 0
3208 1070 1 -1.0484 2.530709793646656 2.2075487897442567 5.472544864385949 0 0 1
3800 1267 2 0.5242 3.9866887052926914 5.163951675396636 1.4300858797591367 0 1 1
3703 1235 1 -1.0484 6.311086585798393 3.204834942688557 1.2506538512115655 0 0 1
1074 358 2 0.5242 5.24415917382093 3.24823788207857 4.70133319576582 1 1 0
2324 775 2 0.5242 6.130306076258368 5.31533838879398 6.200107669159926 0 0 1
1756 586 1 -1.0484 1.1264583274547317 4.426861607803997 2.108284206150353 0 0 1
234 78 2 0.5242 1.0323119600117412 5.428254419730376 3.3980454148813335 1 0 0
3210 1070 2 0.5242 1.603453911243483 2.658479991737604 5.432302071890402 0 0 1
3748 1250 1 -1.0484 2.1294153430698533 1.8694137819530061 2.6582061575925633 0 1 1
3749 1250 2 0.5242 2.243843378231209 2.063871977567593 3.651190967314845 0 1 1
1758 586 2 0.5242 1.1164589570020425 3.435720568546414 2.0501401152731438 0 0 1
591 197 2 0.5242 5.941836460932507 2.480297902151214 2.918440876484348 1 0 0
3209 1070 2 0.5242 2.265223572634511 1.4535166782458397 5.992254523435451 0 0 1
589 197 1 -1.0484 6.020454923660076 2.2363278956207995 3.877297866363044 1 0 0
4173 1391 2 0.5242 4.21415098096454 5.173807680771722 3.969614060872555 0 0 1
233 78 2 0.5242 1.314696431420066 6.174801346641266 4.813022062935955 1 0 0
4171 1391 1 -1.0484 3.8968272071045686 5.785566605609285 3.201935444974355 0 0 1
3705 1235 2 0.5242 6.034438237189931 2.4858373013536337 35.95764321216218 0 0 0
3801 1267 2 0.5242 5.259581254467745 4.396136595543731 1.0312047435551763 0 1 1
1757 586 2 0.5242 0.9782219912227867 4.875986746582651 1.239034836808388 0 0 1
3799 1267 1 -1.0484 4.6695319545275 5.135641526980261 36.10897457004203 0 1 0
4131 1377 2 0.5242 8.05247419627825 5.881889126082018 5.376779529608695 0 1 0
4129 1377 1 -1.0484 8.416186533097665 5.881277416288271 4.400410431645106 0 1 0
3898 1300 1 -1.0484 8.707684349179845 2.987416523359674 4.369914499679501 0 0 0
666 222 2 0.5242 11.064036791743035 4.3137358631734255 2.688778706627329 0 1 0
664 222 1 -1.0484 11.092727038608375 3.5866682094800333 3.373392591138433 0 1 0
3899 1300 2 0.5242 9.652097024958397 3.0776039188641975 4.080516226436873 0 0 0
4130 1377 2 0.5242 8.759723726886389 4.999900093920792 4.237013063877696 0 1 0
2498 833 2 0.5242 9.535812970745905 2.741352797449143 7.582493882975783 0 0 1
2690 897 2 0.5242 11.257209346315186 2.0568939685145518 2.5780108065316862 0 0 1
3704 1235 2 0.5242 7.250094870652899 3.437711003144634 1.0539725439332615 0 0 1
590 197 2 0.5242 6.9624279823387 2.451679204977964 3.988540046714127 1 0 0
3900 1300 2 0.5242 8.84520545136064 2.5666938839458266 5.3166700492936005 0 0 0
2497 833 1 -1.0484 8.99410895062289 2.186820068903958 7.039575383616289 0 0 1
1969 657 1 -1.0484 11.438637820262333 3.654557893244103 6.57767567583242 0 0 0
2499 833 2 0.5242 9.588143623804731 1.3490125735750595 7.065501858210342 0 0 1
665 222 2 0.5242 12.146955611908142 3.502128035164794 3.4910421908531446 0 1 0
1697 566 2 0.5242 10.260537100324807 6.318902237196281 1.6318357482183 0 1 1
1971 657 2 0.5242 11.849524836002404 4.368302283875769 5.953883276070883 0 0 0
2559 853 2 0.5242 9.560044412750802 7.119653233033179 4.41120032622087 0 0 1
3915 1305 2 0.5242 11.593867929777032 6.557927452269962 5.008366111581808 0 0 0
2636 879 2 0.5242 7.039900644836667 6.579939128086866 3.336474913911035 0 1 0
2323 775 1 -1.0484 6.871420147863673 5.814724049842383 6.608500085745283 0 0 1
2130 710 2 0.5242 7.280466170936003 1.2893564183901884 7.27242909898165 1 0 0
1970 657 2 0.5242 12.021551435639891 2.829355857097647 6.487883856345666 0 0 0
1168 390 1 -1.0484 13.545301819362146 3.0785249088357847 3.5893953362585376 0 0 0
1169 390 2 0.5242 13.59672586526136 2.542044873698068 4.416480616065711 0 0 0
1516 506 1 -1.0484 17.003861617681046 35.64722676127401 3.9198112983969615 0 -1 0
1170 390 2 0.5242 14.433871849136562 3.5462292594594382 3.5621809257509818 0 0 0
967 323 1 -1.0484 15.883973400753693 4.63745235926633 3.1292792366559796 0 0 1
969 323 2 0.5242 16.54766069331589 4.892733134240203 3.7692030867440014 0 0 1
1214 405 2 0.5242 16.261172154755663 35.98358900585943 5.734779677421776 0 -1 0
2676 892 2 0.5242 18.098772866757983 3.6205782410589156 1.3913669182311135 0 0 0
3857 1286 2 0.5242 13.861561371765621 2.3835227056554187 1.353550750975898 0 0 0
2724 908 2 0.5242 14.176469173788163 1.0487548662569381 6.086723832194339 0 1 1
2722 908 1 -1.0484 13.225648868838004 1.291002526300503 5.702972681611935 0 1 1
2675 892 2 0.5242 17.090144242691192 4.565311393780158 1.9618518320503868 0 0 0
2674 892 1 -1.0484 17.623656797726625 4.454008027971337 1.1011298711136348 0 0 0
2333 778 2 0.5242 17.47059528869633 1.6810026558804436 2.5755242957673987 0 0 0
968 323 2 0.5242 15.240937285995129 5.490234573496518 3.1481988405123635 0 0 1
3913 1305 1 -1.0484 12.443643306193662 6.164316094292032 5.0962934082252405 0 0 0
3914 1305 2 0.5242 13.032905777555289 6.607815320495373 4.3914767312333876 0 0 0
1213 405 1 -1.0484 15.665544320030921 35.954932434487674 6.473262018602211 0 -1 0
2332 778 1 -1.0484 18.327209251463465 2.0319338290935334 2.111644205605571 0 0 0
30 10 2 0.5242 17.447839142107853 5.286744040517703 5.945530599671653 0 1 1
1201 401 1 -1.0484 14.165500263616881 6.679098078156729 3.2715033223550636 0 0 0
2334 778 2 0.5242 18.348773105230148 1.3947200587985307 1.3355049734726252 0 0 0
28 10 1 -1.0484 17.902740667832727 5.230058887570559 5.004811784834229 0 1 1
29 10 2 0.5242 18.715470870942955 4.61460762463898 5.250050496506444 0 1 1
3061 1021 1 -1.0484 20.41496885227914 1.8035628809242232 3.983362273296214 0 1 0
3063 1021 2 0.5242 19.846894020212403 2.0218565082593027 3.0998662833458863 0 1 0
1668 556 2 0.5242 20.06448502299741 3.013302983331841 4.880728510588873 0 0 0
1153 385 1 -1.0484 22.06796303115157 5.1099818081598825 1.2327692748807233 0 0 0
1154 385 2 0.5242 21.706166252227558 5.536047193771101 2.0388529243759885 0 0 0
1028 343 2 0.5242 22.461053329638325 6.441911993674702 4.4070652626695885 0 1 0
1027 343 1 -1.0484 22.76618455097403 5.955103941921245 5.1986053337763405 0 1 0
1666 556 1 -1.0484 19.830266763492787 3.708593138548029 5.678578705028042 0 0 0
1667 556 2 0.5242 20.6636059867856 4.22288065782378 5.730703050152997 0 0 0
1155 385 2 0.5242 22.16634532378115 5.863175765924917 36.103804658761995 0 0 -1
230 77 2 0.5242 22.188868573321216 3.167338723046356 1.0465550322514248 0 0 0
4369 1457 1 -1.0484 21.17398582847039 6.923459663146968 2.913561139067004 0 0 1
1608 536 2 0.5242 18.59624953425332 5.8064405239390116 35.81386530871915 0 0 0
231 77 2 0.5242 22.24399232842446 1.6490525985170583 1.3539071073227227 0 0 0
1029 343 2 0.5242 23.531853461689135 6.5147079230826215 5.53741880442929 0 1 0
3926 1309 2 0.5242 18.573394085613053 6.566351246473851 4.609551369805879 0 0 1
1606 536 1 -1.0484 18.884262743554636 6.4961807182777305 35.15254886597507 0 0 0
327 109 2 0.5242 21.67521884543183 1.1543753867942563 3.3590711722988593 0 1 0
326 109 2 0.5242 23.229596718969802 1.45762665218634 2.645631409347572 0 1 0
3680 1227 2 0.5242 23.340694101273986 1.7149417312386066 6.6050059351360515 0 0 1
2482 828 1 -1.0484 24.344921344852562 2.5437301087107267 2.959586090834536 -1 0 0
2484 828 2 0.5242 24.727283605856822 2.9015305509543063 3.8175258495581774 -1 0 0
1649 550 2 0.5242 24.470851412440236 5.23623950073104 4.415659408484267 0 1 0
1648 550 1 -1.0484 25.325230773830743 4.735269280235066 4.544600206331909 0 1 0
3742 1248 1 -1.0484 29.00013771314424 5.170221372796403 2.8027623193340228 -1 0 0
3743 1248 2 0.5242 29.5378311939654 4.5681215841147775 2.086491602306676 -1 0 0
3293 1098 2 0.5242 27.329476699152927 5.453672257464125 2.3209582483136018 0 1 0
1650 550 2 0.5242 25.741830249253606 4.862568585679067 3.595646124987737 0 1 0
3292 1098 1 -1.0484 26.386182820047978 5.514935985456719 2.0742801864239944 0 1 0
3489 1163 2 0.5242 29.803390726120924 2.6445638934197833 1.6268885012287366 0 1 0
2483 828 2 0.5242 25.213749176031023 2.1277962099304766 2.5354389792310372 -1 0 0
3294 1098 2 0.5242 26.366991936998026 4.9245920618140815 1.2494642292045783 0 1 0
3487 1163 1 -1.0484 30.247092479351465 3.518932437921078 1.3226594322580736 0 1 0
793 265 1 -1.0484 29.15268586240105 3.6754941216608796 5.592671134385006 0 0 1
3744 1248 2 0.5242 29.06882191568326 4.650648245596031 3.6221506993434107 -1 0 0
1770 590 2 0.5242 29.67305320919452 6.464350325239474 2.7377692600333594 0 0 0
1514 505 2 0.5242 26.2401300708103 4.7251997233982515 6.0536210406835815 0 0 1
1515 505 2 0.5242 27.806443945364528 4.489297076562787 6.25998146295414 0 0 1
1513 505 1 -1.0484 26.920721474306067 4.486425847810283 6.791219303526774 0 0 1
795 265 2 0.5242 29.070342781213128 2.637705429205135 5.762767511741321 0 0 1
794 265 2 0.5242 30.137887783320263 3.78125213203018 5.528543372145435 0 0 1
2710 904 1 -1.0484 29.548011706415064 0.9773718328212304 2.5875834384872114 -1 0 0
2711 904 2 0.5242 28.560487650889794 1.1751905031292085 2.625720155075523 -1 0 0
1511 504 2 0.5242 26.114630324383157 36.15253871978136 5.567841776324497 -1 -1 0
3736 1246 1 -1.0484 29.388218344514566 1.1277738297187891 6.260396143578636 0 1 0
232 78 1 -1.0484 35.939146591048726 5.735527702208542 4.236773651796527 0 0 0
63 21 2 0.5242 35.88181302580633 4.20113678496098 4.668952930962789 -1 0 1
3488 1163 2 0.5242 31.20538391312234 3.558737387915134 1.8259186423052889 0 1 0
61 21 1 -1.0484 35.57668376523606 3.3225421059388185 5.121629921524451 -1 0 1
1078 360 1 -1.0484 31.752297412466504 3.9901738749750897 5.468942952477837 -1 0 0
1079 360 2 0.5242 32.452711949244 3.3195555945759283 5.256477938502361 -1 0 0
3734 1245 2 0.5242 32.90074908335992 4.586829474164583 2.1646987060902716 -1 1 0
3733 1245 1 -1.0484 32.80773106075477 3.5759593574188533 2.2924230113198654 -1 1 0
1080 360 2 0.5242 32.128921690995185 4.799846851966685 5.964853001189401 -1 0 0
62 21 2 0.5242 35.239355492681376 3.5020869924813964 6.01192141416902 -1 0 1
4133 1378 2 0.5242 34.3225500393111 2.1237689898832177 4.390171553458792 0 0 1
4134 1378 2 0.5242 33.19822317842697 2.4631541633227245 3.2721407506219107 0 0 1
4132 1378 1 -1.0484 33.450409771914565 1.7438606854140293 3.9837571379709837 0 0 1
4099 1367 1 -1.0484 32.29642971305199 6.488724381102194 6.359202782366793 -1 0 0
4100 1367 2 0.5242 33.074884464638544 6.667396336828782 6.926955485391734 -1 0 0
1208 403 2 0.5242 33.0267927411418 6.380896208160129 2.6922391309865747 0 0 0
1207 403 1 -1.0484 32.54545588278237 6.131237362470062 1.8495563522073126 0 0 0
4101 1367 2 0.5242 31.56851414545936 6.525834484379371 7.051215373970169 -1 0 0
3735 1245 2 0.5242 33.453839631865314 3.2295362936593 1.5916702531900335 -1 1 0
2670 890 2 0.5242 32.04423767486112 0.7852873941354233 4.325781031475091 0 1 1
3595 1199 1 -1.0484 33.46667036208267 1.6583471433267654 7.062629917237427 -1 0 1
947 316 2 0.5242 34.60032249640279 6.5993151456139865 3.9628212493482917 -1 0 0
1209 403 2 0.5242 33.13516596622898 6.409502107309913 1.1309910917937982 0 0 0
4172 1391 2 0.5242 4.771353983981912 6.278020672407635 3.0044160426344173 0 0 1
1481 494 2 0.5242 3.120541357517376 7.049956095152092 4.419264490727779 1 0 1
1480 494 1 -1.0484 2.636647057558477 7.390854322075623 5.239747004654726 1 0 1
1482 494 2 0.5242 2.8301588645056968 8.320258996798758 5.205042505421147 1 0 1
636 212 2 0.5242 4.553692666772439 9.397961046692902 4.81479103168782 0 0 0
4049 1350 2 0.5242 3.0257044415127377 11.88354292679566 4.485698826658975 0 0 0
580 194 1 -1.0484 3.0682139894636284 10.173390730481744 5.144458455704541 0 0 0
581 194 2 0.5242 2.9278565664842837 10.255812632924945 6.217906760921576 0 0 0
582 194 2 0.5242 2.1167290217002437 10.299555493864277 4.808978783895297 0 0 0
634 212 1 -1.0484 5.447024422405117 9.002643044609988 4.581760527015307 0 0 0
635 212 2 0.5242 5.808535272619426 8.70373906472162 5.451471296437581 0 0 0
2764 922 1 -1.0484 36.03993622799717 10.839137402343583 4.176178366359347 -1 0 1
300 100 2 0.5242 6.488373848639752 7.21695099335579 7.017713616930352 0 0 0
298 100 1 -1.0484 6.3361444021665445 8.234945671662446 7.1793146291211665 0 0 0
399 133 2 0.5242 5.08686071530367 11.293451334076059 35.80240386379106 0 0 0
2637 879 2 0.5242 6.1970545317859616 7.900483806451522 3.4144731880015153 0 1 0
2635 879 1 -1.0484 6.3566335516720445 7.0983846861219435 2.8527423598618302 0 1 0
2930 977 2 0.5242 10.168667342172355 8.081134858254138 2.449180383584694 0 0 1
2125 709 1 -1.0484 7.47637899127748 10.827191073559424 4.927419671189499 0 0 0
2127 709 2 0.5242 7.063874579003514 11.367078210715169 5.682088551578329 0 0 0
2126 709 2 0.5242 6.656923469688569 10.215153313915703 4.617254676713481 0 0 0
2557 853 1 -1.0484 10.342047425625328 7.737082632604427 4.393488635241153 0 0 1
763 255 1 -1.0484 8.980828365996636 11.934317206600761 2.976017819958187 0 0 0
764 255 2 0.5242 8.407688988189683 11.239254229051127 3.4411862263275403 0 0 0
1340 447 2 0.5242 7.844278240795007 10.293224413847764 36.10615803157041 0 0 0
1339 447 1 -1.0484 8.87842213113618 10.246283303209589 0.8976248802959039 0 0 1
2929 977 1 -1.0484 9.579444781418763 7.866437840453208 1.760307999552504 0 0 1
2558 853 2 0.5242 10.052816530016305 8.554635016845992 4.894407523980682 0 0 1
2931 977 2 0.5242 9.396283857896478 8.764025406925088 1.4639475223866232 0 0 1
1341 447 2 0.5242 9.026463773625599 11.091952223318481 1.4920656457232395 0 0 1
1734 578 2 0.5242 9.088258049265022 10.504815273548745 5.7787858137595 0 0 0
2190 730 2 0.5242 10.641408887463998 12.318746487722073 3.0710688293873996 0 0 1
2188 730 1 -1.0484 11.637493503411092 12.554985296610267 3.017671919223011 0 0 1
2189 730 2 0.5242 11.631513504450162 12.658593475339563 2.028729104411678 0 0 1
3134 1045 2 0.5242 11.733730080916908 13.447532836816611 6.186838031821322 0 0 0
3135 1045 2 0.5242 11.214532475915272 13.431282148058836 4.760028432723843 0 0 0
765 255 2 0.5242 8.404253091158903 12.7918056243044 3.095617327330072 0 0 0
1336 446 1 -1.0484 6.610998523414601 12.226493121148197 6.788068932333206 0 1 0
1613 538 2 0.5242 6.521099268705764 7.164571923483591 35.91114067331018 0 1 -1
1202 401 2 0.5242 14.393868653317162 7.6197154961074824 3.7071219337706034 0 0 0
1203 401 2 0.5242 14.287768647451298 6.920607764456611 2.253373537712069 0 0 0
3969 1323 2 0.5242 13.2785058187763 13.319263511523866 3.5595898528777554 0 0 0
180 60 2 0.5242 14.193868712566381 9.94400235491494 3.8679275302529894 0 0 0
178 60 1 -1.0484 14.685354783912624 9.167590082519688 4.207528073470039 0 0 0
179 60 2 0.5242 15.678834529657818 9.50126708137786 4.108484117282131 0 0 0
107 36 2 0.5242 17.8962106977149 11.507697613540481 1.2783330615438726 0 0 1
2806 936 1 -1.0484 15.512607379450401 12.388071568775235 5.661844942400822 0 -1 1
2808 936 2 0.5242 16.45222923691014 12.21463754758532 5.331987998346449 0 -1 1
106 36 1 -1.0484 18.356166963823895 10.540165451582848 1.1739785681155905 0 0 1
3968 1323 2 0.5242 14.215259266766733 13.12795513621601 4.887403551388166 0 0 0
2807 936 2 0.5242 15.696726106136921 13.051847690467001 6.346237925765741 0 -1 1
2116 706 1 -1.0484 14.719550786586293 7.517593587438043 0.8109166672677734 0 0 1
2480 827 2 0.5242 14.494664722872326 9.553540223564044 5.854536611171368 0 0 1
2118 706 2 0.5242 15.663782713964826 7.694921880966287 36.00712232548885 0 0 0
1607 536 2 0.5242 18.06101516152853 7.065652222586424 35.069759716221036 0 0 0
4370 1457 2 0.5242 21.044125568847434 7.434526054333527 2.1560150232652324 0 0 1
4371 1457 2 0.5242 20.465934798741667 7.259058401071697 3.439149233805868 0 0 1
2687 896 2 0.5242 17.499302518231982 9.660409085655939 2.8526768001461824 0 0 1
2686 896 1 -1.0484 17.300393973605217 9.592995591747902 3.77619052029237 0 0 1
2688 896 2 0.5242 17.717044944799888 10.51505872884329 4.216352579929808 0 0 1
3925 1309 1 -1.0484 18.985803160459117 7.545413406079119 4.482875846074388 0 0 1
1947 649 2 0.5242 18.50903588316736 11.347570826713882 5.846203606351742 0 0 0
3927 1309 2 0.5242 18.163548023485347 8.095471454659489 4.271435025212318 0 0 1
2414 805 2 0.5242 19.763558031172668 8.001182963223831 5.9505820578506405 -1 0 1
1945 649 1 -1.0484 18.177276178293123 11.802795055115386 4.915452989232956 0 0 0
3101 1034 2 0.5242 23.035184589790866 9.891327901394526 5.427232516232933 0 0 1
3834 1278 2 0.5242 23.190490807959453 11.186586882304354 3.254291076074804 0 0 1
3054 1018 2 0.5242 21.626308115121535 11.183269376193461 1.2329333776658462 0 0 1
3832 1278 1 -1.0484 22.81846573777433 11.842029193753657 2.5192049094698685 0 0 1
3833 1278 2 0.5242 21.846602186731523 11.992022143399215 2.837419560221162 0 0 1
3102 1034 2 0.5242 23.666413960745658 11.25651641958611 5.1679145191532205 0 0 1
108 36 2 0.5242 19.391695547191496 10.74249145584016 1.032150437121434 0 0 1
3100 1034 1 -1.0484 23.578581618381953 10.316993183360054 4.692674717880399 0 0 1
1946 649 2 0.5242 19.038463804334402 12.156658284165953 4.558583464827151 0 0 0
3052 1018 1 -1.0484 20.8962950795157 11.062088134808114 35.93467137808115 0 0 0
1405 469 1 -1.0484 21.017909314165355 12.516440040872974 4.436438018264045 0 0 0
3126 1042 2 0.5242 26.026012398396052 7.611713077936588 1.3806758033487698 0 0 0
3125 1042 2 0.5242 25.378752217872183 8.979797968588427 0.7562438597389587 0 0 0
489 163 2 0.5242 24.22570078667928 12.03352809875782 1.4557031118616421 0 0 0
3124 1042 1 -1.0484 25.760934707471257 8.54692415028809 1.5757367210597315 0 0 0
1768 590 1 -1.0484 30.27324598648839 7.3386519973482445 2.690737125692778 0 0 0
3303 1101 2 0.5242 24.900835051163124 9.814544081112016 4.339359223335993 0 0 1
3302 1101 2 0.5242 25.75034993960401 9.158138604275578 3.165096502808025 0 0 1
3301 1101 1 -1.0484 25.866295372914436 9.317590433993809 4.138995068268491 0 0 1
4016 1339 2 0.5242 25.24554412516555 7.993075772550338 5.462487334469741 0 1 1
3973 1325 1 -1.0484 28.331241959599748 10.501159478217012 3.194608731737638 0 0 1
3975 1325 2 0.5242 27.563136909399574 9.872543953286922 3.131999967795676 0 0 1
1424 475 2 0.5242 27.78753305578336 7.506554926519094 6.053361059486033 -1 0 0
2966 989 2 0.5242 28.907669069408506 9.510119375484507 4.306947998940869 0 0 1
3974 1325 2 0.5242 28.807938546338583 10.342368796522269 2.2865102541278715 0 0 1
2965 989 1 -1.0484 29.355595558543268 8.722764350642716 4.851234944970416 0 0 1
2967 989 2 0.5242 29.73768076074016 8.13193325709081 4.124717221660045 0 0 1
3212 1071 2 0.5242 27.877384388873665 11.981326601886778 3.757004126798126 0 0 1
4094 1365 2 0.5242 29.958588940589266 8.85079366590457 1.3911638363643437 0 1 0
4093 1365 1 -1.0484 29.48700300897712 9.586845675550354 0.9311004784552767 0 1 0
4015 1339 1 -1.0484 24.712610373058794 7.435670427800743 6.081353357802726 0 1 1
4017 1339 2 0.5242 23.95534650270059 8.05253053946323 6.497879144336999 0 1 1
1425 475 2 0.5242 26.77867492534888 6.925598922061303 6.925096247501084 -1 0 0
487 163 1 -1.0484 24.95772466655311 12.198096322409356 0.7799886212369675 0 0 0
2901 967 2 0.5242 27.206842805494844 12.320185143546265 5.915101718408847 0 0 0
948 316 2 0.5242 33.297652717648745 6.572157128333636 4.793030366811123 -1 0 0
946 316 1 -1.0484 33.71540695030611 7.033543704920563 3.975755421526372 -1 0 0
537 179 2 0.5242 30.70076466345336 9.500157023404505 5.23095580000793 0 0 0
1769 590 2 0.5242 31.201470959113813 6.926940770895459 2.4184444938008505 0 0 0
2766 922 2 0.5242 35.597552293515136 11.74387761875359 4.40429227840105 -1 0 1
1268 423 2 0.5242 33.00871096258464 9.702877520659825 5.176149351350882 0 0 0
1269 423 2 0.5242 33.87068197397974 8.394135583217503 4.737497065482651 0 0 0
1267 423 1 -1.0484 34.016570268831494 9.412658477865422 5.123992057218262 0 0 0
2765 922 2 0.5242 35.29957403305208 10.186447841536017 4.349355080335316 -1 0 1
3876 1292 2 0.5242 31.856978190003208 11.211964753419624 4.353296370793591 0 0 0
535 179 1 -1.0484 31.450581042586208 10.163930879884541 5.3795349177018945 0 0 0
668 223 2 0.5242 0.9013139971092414 10.887509041009489 2.4022311605415174 0 0 1
970 324 1 -1.0484 33.459571801030854 11.774248871092011 1.3414339210293735 0 0 1
667 223 1 -1.0484 36.00704159734676 10.835669843021089 1.44201521821996 -1 0 1
669 223 2 0.5242 34.96520824403268 11.061733294194603 1.5946909555697921 -1 0 1
536 179 2 0.5242 31.418042521265363 10.281976402405455 6.4124372818554365 0 0 0
1539 513 2 0.5242 31.986316503137463 11.175856377778846 35.510738960705716 0 0 0
972 324 2 0.5242 32.960310992740496 11.792679740857922 2.2080056668806636 0 0 1
4048 1350 1 -1.0484 3.15770656831805 12.88774163959906 4.4186092092318585 0 0 0
2124 708 2 0.5242 4.034696791050884 13.57125434856033 1.354452483621225 0 0 0
4050 1350 2 0.5242 2.8631091328682685 13.167266697262342 5.279620363909797 0 0 0
2123 708 2 0.5242 3.4449253664934045 13.398790844318267 2.7851460087487374 0 0 0
1671 557 2 0.5242 4.904676623208411 13.824238382777628 4.669071742646528 0 0 0
2122 708 1 -1.0484 3.3122686923388764 13.980836640847047 1.9905378469966346 0 0 0
1669 557 1 -1.0484 5.785110299011854 14.147991289282658 4.946414388748592 0 0 0
4141 1381 1 -1.0484 5.311591165380296 16.74614373090455 6.2108285592055985 1 0 0
4143 1381 2 0.5242 5.520761462210071 15.90690202484 5.642362870103186 1 0 0
2819 940 2 0.5242 2.8346144581833976 17.640496120875714 2.6943698144251416 1 0 0
2820 940 2 0.5242 1.7384939996224302 17.890678064690825 3.8665432126736343 1 0 0
297 99 2 0.5242 2.1668494752704857 15.257258609749007 4.267382518543018 0 0 0
755 252 2 0.5242 3.431681547797644 15.54502978781658 1.7710025998044838 0 0 1
4142 1381 2 0.5242 5.887174295091636 16.700304790381008 6.985481565844264 1 0 0
754 252 1 -1.0484 3.4480198135643514 16.514147148363406 1.4475320846111925 0 0 1
2193 731 2 0.5242 5.01374897323825 18.13102061275161 5.094642111399767 0 0 0
1670 557 2 0.5242 6.200425496921008 13.393123263924892 5.4436926811110915 0 0 0
756 252 2 0.5242 2.602696271694419 16.536668579730165 0.9656446883532865 0 0 1
295 99 1 -1.0484 1.4877136828931667 16.02048306983922 4.149912170869084 0 0 0
940 314 1 -1.0484 1.9422400275765321 13.735933426611524 6.852917628263936 0 0 0
2490 830 2 0.5242 4.16478303028808 15.994946605729918 7.317611256267054 1 0 1
942 314 2 0.5242 2.454470847373213 14.407070315435098 7.389461313437369 0 0 0
3365 1122 2 0.5242 1.6376249368853841 13.579697724592332 1.8624764895754036 0 0 1
2488 830 1 -1.0484 3.591510831302712 15.350075053436566 7.95226214595795 1 0 1
3364 1122 1 -1.0484 0.9273493121615168 13.578139585153009 1.2113802205014172 0 0 1
3842 1281 2 0.5242 6.601425337248719 14.059195274640409 3.4780737476894257 0 0 1
3133 1045 1 -1.0484 10.965206047149756 13.779600765362881 5.697951439069037 0 0 0
3841 1281 1 -1.0484 7.4801552141313685 14.063571502137094 2.940138795841702 0 0 1
3843 1281 2 0.5242 7.606629190961702 15.02102603921378 3.0409374404356084 0 0 1
2621 874 2 0.5242 7.1194180210331 13.829986803572138 1.2221963598240204 1 0 0
4177 1393 1 -1.0484 7.500868239525205 16.67946392819004 3.5201575582722477 0 0 0
4178 1393 2 0.5242 7.1694519852862175 17.420427901817874 2.963272854656248 0 0 0
4179 1393 2 0.5242 8.367511374196448 17.03020734551808 3.896968956027699 0 0 0
3901 1301 1 -1.0484 9.865504538447171 17.577138600693342 4.753091692270653 0 0 0
3902 1301 2 0.5242 10.748316033644649 17.047401731203415 4.666781092138779 0 0 0
3962 1321 2 0.5242 11.668769195971828 15.289423003382195 5.067125500499448 0 0 0
3903 1301 2 0.5242 9.666195494328546 17.53464480758018 5.76995566501413 0 0 0
110 37 2 0.5242 7.71042825759379 18.715815438290274 0.817068203805694 0 -1 0
279 93 2 0.5242 10.943369190690523 18.5096070057213 1.0482279904942222 0 0 0
109 37 1 -1.0484 7.90501671495184 19.13765996150953 1.7997408201368752 0 -1 0
3848 1283 2 0.5242 11.017774541627077 18.75268620111498 4.459474615859058 0 -1 0
111 37 2 0.5242 8.912513938953296 19.29370787095602 1.7132124509218185 0 -1 0
4314 1438 2 0.5242 9.77037802557485 13.908357636368773 6.686748389903255 0 0 0
1337 446 2 0.5242 7.489750481602853 12.65169519744214 7.045291419192599 0 1 0
3961 1321 1 -1.0484 12.286529342821316 16.081477087230176 5.010874105484678 0 0 0
3967 1323 1 -1.0484 13.814599545920949 13.874916110680573 4.255934918795585 0 0 0
4225 1409 1 -1.0484 17.317086563206587 13.122969815379722 1.3618654186614616 0 0 0
4227 1409 2 0.5242 16.59973524807525 13.798050066096923 1.8105189770609458 0 0 0
3963 1321 2 0.5242 13.050555442013296 15.553513645384726 4.603670678922766 0 0 0
4332 1444 2 0.5242 15.722544536323317 15.752403897521306 3.0159603355490647 0 0 1
4330 1444 1 -1.0484 15.72522363851394 14.925284623471269 2.5278764527634396 0 0 1
4331 1444 2 0.5242 15.226343727714381 14.385397450292647 3.1857288121064107 0 0 1
1242 414 2 0.5242 17.280004889339928 16.679473478795657 4.959678037681451 0 0 0
259 87 1 -1.0484 16.168261756054584 17.19153361598485 3.8370694918673047 0 0 0
260 87 2 0.5242 15.397354192179309 17.75239946225658 4.329379083789332 0 0 0
261 87 2 0.5242 16.39040402465389 17.82699421671861 3.046427975645231 0 0 0
800 267 2 0.5242 14.475680942986624 15.195209820983896 1.2806880599826083 0 0 1
1240 414 1 -1.0484 17.877578706581282 16.397443009240966 5.6984676053206815 0 0 0
1428 476 2 0.5242 17.733750872115426 18.352603717462518 1.418864154144348 0 -1 1
1426 476 1 -1.0484 16.853140424910737 18.675465338053087 1.6125377222100648 0 -1 1
4196 1399 2 0.5242 18.54650779430779 14.164218671113193 1.1054526026541387 -1 0 1
1442 481 2 0.5242 13.078983222205302 15.767700586063857 6.775613703199953 0 0 0
523 175 1 -1.0484 14.154075187665564 18.661790318734777 5.0073926549112695 0 0 1
525 175 2 0.5242 14.247597334919798 18.47586569842361 6.009308979547001 0 0 1
2205 735 2 0.5242 16.877826010445613 15.392600403742838 6.705751430619067 1 0 0
1443 481 2 0.5242 13.816280106646962 16.644431765462897 7.666527846687826 0 0 0
406 136 1 -1.0484 14.176962068715287 18.34273129585514 7.723264501556055 1 0 1
1189 397 1 -1.0484 23.81184158389137 12.788477284211364 5.737416737554119 0 1 0
1241 414 2 0.5242 18.526199938461836 15.777568023362964 5.2239412048860245 0 0 0
1407 469 2 0.5242 21.88573924760248 12.725686047442434 4.933505820276941 0 0 0
1406 469 2 0.5242 20.673398248410358 13.420987546082193 4.226468395844902 0 0 0
3678 1226 2 0.5242 19.534367474931212 14.834230309726452 3.0736838224146372 -1 0 1
4195 1399 1 -1.0484 19.333530220955808 14.764454243498985 1.3079011469081037 -1 0 1
3677 1226 2 0.5242 20.646880532578958 15.595996761026104 3.8899061230951664 -1 0 1
3676 1226 1 -1.0484 19.847846955262398 15.006518612389225 4.053113905539445 -1 0 1
4081 1361 1 -1.0484 23.26660430666166 17.3359255167738 1.406262989353995 0 0 0
1053 351 2 0.5242 21.542202121638493 17.46911432580456 3.598746283393075 0 0 0
1051 351 1 -1.0484 21.92257188130931 16.584746414479756 3.611719308559371 0 0 0
1052 351 2 0.5242 22.174202807877887 16.656869716713594 2.6448980882789015 0 0 0
4181 1394 2 0.5242 22.692825863266066 16.229350876182565 5.110542531855037 0 0 0
4180 1394 1 -1.0484 22.891230504381674 16.38989264700986 6.1211208163075135 0 0 0
2797 933 1 -1.0484 19.544446230044535 17.657163421983768 1.1959610413903161 0 0 1
1911 637 2 0.5242 24.29125066893081 15.41868122134827 5.920324632697136 0 0 1
2798 933 2 0.5242 19.597898587652963 16.648220922840295 1.0772401668897744 0 0 1
1191 397 2 0.5242 24.61799933122215 13.407474320485695 5.635680412871423 0 1 0
2667 889 2 0.5242 19.61853857588058 16.706364593757463 6.4870574399811085 0 0 0
4082 1361 2 0.5242 24.07498230001718 16.99338588640856 1.97765954865577 0 0 0
4083 1361 2 0.5242 23.171132285199853 18.30553822113651 1.5410888436577272 0 0 0
4182 1394 2 0.5242 21.99981868393001 16.280815625207698 6.483530517567704 0 0 0
1628 543 2 0.5242 24.036841170877747 17.616183348325617 6.2265814281985605 0 0 0
4197 1399 2 0.5242 20.073319283816502 14.390611117179237 36.15881499629169 -1 0 0
3211 1071 1 -1.0484 27.403520468340727 12.79342432566446 4.155346030851053 0 0 1
3716 1239 2 0.5242 25.89370778880464 13.352817031312469 1.3042105870620209 0 0 0
3717 1239 2 0.5242 26.66420623748977 13.612790886133176 2.741354237574103 0 0 0
1813 605 1 -1.0484 25.247449186134745 16.278429146530435 2.8611569658477918 0 0 0
1910 637 2 0.5242 25.314005774933513 15.547418676426943 4.790130830720742 0 0 1
3715 1239 1 -1.0484 26.590289916982577 14.0369804680239 1.7879670524765798 0 0 0
1815 605 2 0.5242 25.65578960859986 15.375204248668414 2.5166261558770557 0 0 0
3213 1071 2 0.5242 28.178736838233505 13.433161565593501 4.40302538910968 0 0 1
1814 605 2 0.5242 26.04626453236175 16.95960673175126 2.7422092633816852 0 0 0
3527 1176 2 0.5242 28.584149118840845 16.980800066357673 2.783436257023064 0 0 0
769 257 1 -1.0484 29.831023594001532 16.21749597700142 2.221862549979247 0 0 0
1909 637 1 -1.0484 25.237617828335203 15.150319299431073 5.734548906266406 0 0 1
770 257 2 0.5242 29.382115805535737 15.611149998188317 1.4925690735449364 0 0 0
1152 384 2 0.5242 27.77830276143393 14.529692908005917 0.8216624339540397 0 0 1
3526 1176 1 -1.0484 27.741400899598545 17.431159407976157 3.1969907835518074 0 0 0
2002 668 1 -1.0484 29.99060124645633 14.159324412646912 4.344610313174952 0 -1 0
2003 668 2 0.5242 30.1008415425651 14.943909794684139 3.835339178644987 0 -1 0
2004 668 2 0.5242 30.18081506907337 14.512192755593034 5.315994574639648 0 -1 0
771 257 2 0.5242 30.812814087091546 16.31198072356164 2.052683017841819 0 0 0
3528 1176 2 0.5242 27.89008615263656 17.52655857053212 4.184624605653358 0 0 0
3418 1140 1 -1.0484 27.660480911206083 17.969816356247158 6.01613139251636 0 1 0
941 314 2 0.5242 1.0172107668644887 14.184003074133788 6.625009333201604 0 0 0