LAMMPS data file via write_data, version 23 Jun 2022, timestep = 2000822

4500 atoms
2 atom types
3000 bonds
1 bond types
1500 angles
1 angle types

0.7781518701146659 36.208848129891095 xlo xhi
0.770322869898969 36.20867713009592 ylo yhi
0.7458572442213836 36.20814275577864 zlo zhi

Masses

1 15.9994
2 1.00794

Pair Coeffs # lj/cut/tip4p/long/gpu

1 0.16275 3.16435
2 0 0

Bond Coeffs # harmonic

1 250 0.9572

Angle Coeffs # harmonic

1 60 104.52

Atoms # full

1606 536 1 -1.0484 5.948460419158925 4.69960894738553 4.913131542315999 1 -1 -1
1607 536 2 0.5242 5.292473286009337 5.426948719921048 4.795555929400734 1 -1 -1
1777 593 1 -1.0484 2.3849531844597642 2.1594324168715895 4.699911011017951 0 0 1
1778 593 2 0.5242 3.252188070156622 2.450185459124252 5.0336195701409086 0 0 1
1779 593 2 0.5242 1.8940363758025773 3.001831400260125 4.820339941959038 0 0 1
2601 867 2 0.5242 2.4791197118271615 2.901503568024307 3.0525200282254317 1 -1 -1
2600 867 2 0.5242 3.322812602390923 3.644860087762721 2.120756720486235 1 -1 -1
2599 867 1 -1.0484 2.3215954770669924 3.415475124333383 2.2504610032457957 1 -1 -1
1306 436 1 -1.0484 1.8591896506886323 6.483138247539712 1.122492334213757 1 1 1
1307 436 2 0.5242 1.4160280005560466 6.255180653338266 1.8521615390016393 1 1 1
2515 839 1 -1.0484 4.940804131356574 4.127968722700594 1.7732146251427086 -1 2 2
2517 839 2 0.5242 5.782855164769144 3.871078163581465 2.141956034886861 -1 2 2
3339 1113 2 0.5242 8.071562038823634 4.223574069192848 3.3180682204245766 1 3 2
3337 1113 1 -1.0484 7.448349720073253 3.5733901844435083 3.0961014970221403 1 3 2
4405 1469 1 -1.0484 3.0111768477447924 5.015920141911967 4.71300419839347 -1 1 2
1460 487 2 0.5242 1.7016899832994676 36.18393238399054 4.261091569005448 2 0 0
3338 1113 2 0.5242 6.750002640796658 3.8551359152616955 3.6844310865991443 1 3 2
1459 487 1 -1.0484 1.284297064224638 35.517009045776625 3.5006460456372768 2 0 0
703 235 1 -1.0484 4.644054135605867 2.682439786360008 6.339002764231639 1 1 1
704 235 2 0.5242 5.235567650651731 3.3186472145335064 5.822184116681377 1 1 1
1461 487 2 0.5242 35.80318791907334 35.81965898908583 3.5903617105271968 1 0 0
4159 1387 1 -1.0484 6.96512554607623 7.896470839298718 1.1879859906229608 0 -3 -1
4161 1387 2 0.5242 7.576791251079699 8.73172455311347 1.2040746533334712 0 -3 -1
1608 536 2 0.5242 6.810983600055773 5.11784370051972 5.2873306532810425 1 -1 -1
34 12 1 -1.0484 7.859746267400527 1.0997598760667064 1.4416870912248 1 0 0
35 12 2 0.5242 7.603267625653483 1.7361706256854448 2.071461102805813 1 0 0
2052 684 2 0.5242 8.435053787216212 6.671559170391196 5.826921268323259 1 2 -3
2050 684 1 -1.0484 8.227385543168811 5.689013149072922 5.772864048297588 1 2 -3
2051 684 2 0.5242 8.252009310490585 5.345252681064696 6.727368763155937 1 2 -3
169 57 1 -1.0484 9.449935988496422 9.602407619389647 2.563975166714981 -1 1 1
171 57 2 0.5242 9.872644572062836 10.202754555957025 3.243278303119057 -1 1 1
170 57 2 0.5242 9.667810442478574 8.710300534431887 2.87532652471019 -1 1 1
668 223 2 0.5242 10.146953203926929 3.805289464050797 6.742151701268338 2 1 -1
3816 1272 2 0.5242 11.2823242405751 3.383924048408693 2.796733399219111 0 0 0
3814 1272 1 -1.0484 11.345087728504392 3.1723937888240887 3.7495040956391765 0 0 0
496 166 1 -1.0484 9.509307440702107 0.9691316070364093 7.445947535053603 -2 2 0
2713 905 1 -1.0484 8.831210455908321 4.458161515694865 7.872116368306027 2 1 2
667 223 1 -1.0484 11.018172843546314 3.6348876167822857 6.349705115854215 2 1 -1
669 223 2 0.5242 10.864677981066169 3.339068027840238 5.448509909479429 2 1 -1
36 12 2 0.5242 7.748357146047092 35.79736467780328 2.104577864800187 1 -1 0
3815 1272 2 0.5242 11.40161686887639 2.084842603108638 3.8390097003494454 0 0 0
546 182 2 0.5242 11.785516948112145 36.1942950949839 5.292785060940354 1 0 -1
497 166 2 0.5242 9.835275424228353 35.82081600670744 8.1455320348023 -2 1 0
2714 905 2 0.5242 8.603970767017067 3.8818681140427946 8.553759525710669 2 1 2
3260 1087 2 0.5242 12.043173261822616 4.87361353614685 5.835934134622509 0 -2 1
3259 1087 1 -1.0484 12.826162163125614 5.493008502560809 5.558146170401155 0 -2 1
2964 988 2 0.5242 14.501380505685587 2.976644615327158 4.227246168279885 -3 1 0
2733 911 2 0.5242 15.352727669462897 6.405388742732236 2.894530241493192 -1 0 1
3261 1087 2 0.5242 13.161866806593844 5.098656975846363 4.68937116444738 0 -2 1
87 29 2 0.5242 17.22749689903829 5.062323649174854 8.119737903531679 0 1 1
2962 988 1 -1.0484 14.108850174466788 3.696204899034008 3.63847115323397 -3 1 0
2963 988 2 0.5242 13.176050686148411 3.3609599873910883 3.6492049317060644 -3 1 0
2623 875 1 -1.0484 15.53696329470398 1.6012992532299035 4.398834711272333 -1 1 -1
2625 875 2 0.5242 15.34280280762086 1.132285831187907 5.287103771771821 -1 1 -1
85 29 1 -1.0484 16.490155624689123 4.69380788546616 7.662045704642407 0 1 1
343 115 1 -1.0484 17.572960799057043 3.5107972242901524 4.784140003168865 -1 1 1
86 29 2 0.5242 16.961902568383778 4.518353762303596 6.782666385859641 0 1 1
4145 1382 2 0.5242 11.982669936167428 2.382201409071113 6.947088958446725 0 5 1
2901 967 2 0.5242 16.075099486793047 6.419525682865585 5.792635047213919 2 -2 0
2899 967 1 -1.0484 16.71261424432628 6.703878069688784 5.072048717320131 2 -2 0
2732 911 2 0.5242 15.790937475723693 7.979292785960178 2.5653446828124986 -1 0 1
2731 911 1 -1.0484 15.323332644219606 7.054199548884586 2.1933206570148065 -1 0 1
345 115 2 0.5242 17.84216851694605 3.7416608398477833 3.9283802495473816 -1 1 1
344 115 2 0.5242 16.740363435950023 2.9088871134831824 4.517172041033537 -1 1 1
1501 501 1 -1.0484 17.45709314949039 6.361875525981409 35.83182561439972 2 -1 2
1503 501 2 0.5242 16.66073646052643 6.564430513508305 0.9194796003879112 2 -1 3
1172 391 2 0.5242 18.273810680367156 5.81217528981424 1.7848214195805003 -1 -1 0
1171 391 1 -1.0484 18.92868091819262 5.09113204203081 2.2568127427105393 -1 -1 0
3675 1225 2 0.5242 19.873356115529464 3.2721187794076956 5.0464478437445255 0 0 3
472 158 1 -1.0484 20.743015221339917 5.679387076009097 4.32878605291206 2 0 3
474 158 2 0.5242 19.94785359378728 5.485252112760537 3.828399539177231 2 0 3
473 158 2 0.5242 20.27243311335942 6.253253943062548 5.067248591920985 2 0 3
1142 381 2 0.5242 23.70320731709262 34.6309325100694 6.7301882231708925 0 -1 -1
1141 381 1 -1.0484 22.74137581935541 34.91232510891613 6.665532444898167 0 -1 -1
1787 596 2 0.5242 25.18997067371106 4.906681286978634 6.201215443778317 0 1 2
1788 596 2 0.5242 24.81275103589419 4.594964647826059 4.803155314932951 0 1 2
3674 1225 2 0.5242 21.220053515091816 3.567250799424131 4.519031807415241 0 0 3
3673 1225 1 -1.0484 20.614078281588494 2.845090353845964 4.509117993833857 0 0 3
3096 1032 2 0.5242 22.116812919646055 6.273521997397129 3.901907544182714 0 -1 1
577 193 1 -1.0484 23.214127876489176 36.16990657305357 3.5239803938623466 -1 -1 -2
1173 391 2 0.5242 19.664457277635815 4.956342993451983 1.5941643479154002 -1 -1 0
1949 650 2 0.5242 23.45007645291413 2.318913131687397 4.33021326954348 2 2 -1
578 193 2 0.5242 22.592511844969465 1.1124395226579866 2.899938509824576 -1 0 -2
1786 596 1 -1.0484 25.39778879782044 5.172877550520998 5.332263495423735 0 1 2
1948 650 1 -1.0484 23.63583151027914 3.2746760568455455 4.262542316486668 2 2 -1
1950 650 2 0.5242 23.82388047213358 3.324028625014708 3.281360703908007 2 2 -1
2456 819 2 0.5242 19.15809010614124 7.865992577592415 5.600655199121144 -1 0 1
2455 819 1 -1.0484 19.048663907590353 7.06261150784873 5.9223965369367315 -1 0 1
2457 819 2 0.5242 18.035604629826956 6.8132559148521254 5.600855902434474 -1 0 1
839 280 2 0.5242 26.364131059586725 3.1009579705423307 4.984815152426813 -2 -1 1
838 280 1 -1.0484 27.110868796370028 2.6536682810619094 5.423887522966532 -2 -1 1
1828 610 1 -1.0484 28.605150431916925 6.407167731076365 2.8563149446201135 2 1 1
38 13 2 0.5242 30.184663531844414 6.0370916898988805 1.9363985527623375 0 1 -1
1830 610 2 0.5242 27.759660878133165 7.010560951247337 2.99511676869908 2 1 1
3798 1266 2 0.5242 31.167031927559062 3.0652887889762104 1.5220317296172818 -1 2 1
620 207 2 0.5242 29.936319263153273 3.189468225807709 3.9802317190199665 -1 -1 2
619 207 1 -1.0484 30.37184810959137 2.8081219709960004 3.260929838472455 -1 -1 2
3797 1266 2 0.5242 30.828551539772178 4.452749942434285 0.7559115764972822 -1 2 1
4223 1408 2 0.5242 29.104063612881895 1.5106049342932235 3.374053721618408 -1 1 -2
4248 1416 2 0.5242 28.7986432047724 5.3111174926924525 4.573872495836291 0 2 1
4246 1416 1 -1.0484 28.786935609676966 4.86019217953713 5.419626632295847 0 2 1
840 280 2 0.5242 27.79662114453105 3.5289969186763765 5.462158690001892 -2 -1 1
3796 1266 1 -1.0484 31.101265189918994 3.4178273769426 36.12574708807565 -1 2 0
3996 1332 2 0.5242 26.60018573680221 3.0456018826286058 1.7875197436126602 1 1 1
4222 1408 1 -1.0484 28.68083754987812 0.7708971620977252 2.9138158117334347 -1 1 -2
3995 1332 2 0.5242 26.4199558785758 2.204330547238419 3.011173640357042 1 1 1
3994 1332 1 -1.0484 25.975463047985752 2.3654691016029314 2.2271063448705872 1 1 1
1827 609 2 0.5242 26.090347856240253 1.8611559782231837 6.746353247946258 -1 2 4
4279 1427 1 -1.0484 29.128527106077332 7.262801054816684 6.8273257793606135 -2 2 0
1829 610 2 0.5242 28.216067423800045 5.669062906334833 2.2798547505351037 2 1 1
39 13 2 0.5242 31.55426737956865 6.215458667831849 1.4743427083260914 0 1 -1
2752 918 1 -1.0484 35.113921496706666 4.470093083972412 2.191238884087454 -1 1 -1
2753 918 2 0.5242 34.54401363676129 4.217696561419398 1.3323817407664722 -1 1 -1
540 180 2 0.5242 33.182353762285516 1.7935328644083817 3.9975556414993294 0 -2 0
539 180 2 0.5242 33.63085270941238 2.9169120810331206 3.2286131183383526 0 -2 0
538 180 1 -1.0484 32.84600137868301 2.7222020094946515 3.773037610490503 0 -2 0
2754 918 2 0.5242 36.068052219815726 4.1693870020327495 1.9943684451798138 -1 1 -1
3641 1214 2 0.5242 33.41034349773271 7.34373695828957 2.2352712400893253 2 1 0
3642 1214 2 0.5242 34.016003464841106 5.881406871332077 2.0703289357041332 2 1 0
3640 1214 1 -1.0484 33.16723919901675 6.388850887743616 1.9076976125809233 2 1 0
3590 1197 2 0.5242 33.12497975152003 4.4346821708211515 5.937504325902595 0 -1 2
621 207 2 0.5242 31.338790250141685 2.615342410240996 3.6074886148191774 -1 -1 2
3591 1197 2 0.5242 32.67436798060855 2.937560857363075 5.896165219433632 0 -1 2
1300 434 1 -1.0484 33.65844736372624 6.009400262175605 5.22397314109654 -2 1 -1
1598 533 2 0.5242 29.481480155161098 34.67468018112055 2.3644793068978416 1 0 2
153 51 2 0.5242 1.1508792833652997 8.628476988056239 2.2054241914088597 0 0 0
2596 866 1 -1.0484 4.480183619328125 7.5109780017371355 5.632450012805938 0 -1 1
2597 866 2 0.5242 4.240003086928146 7.993662864309574 6.401090300668625 0 -1 1
1449 483 2 0.5242 6.351794228691691 12.663600066359788 4.235759492905956 -1 2 -1
4326 1442 2 0.5242 5.80640840242224 10.238687115723494 3.949876857869423 1 -1 2
4324 1442 1 -1.0484 5.800226771037705 9.209520537509169 3.6461868836262554 1 -1 2
2251 751 1 -1.0484 1.051677577711783 12.55735033915867 5.784393397932717 0 1 -2
4168 1390 1 -1.0484 3.7815921464062114 9.60723599581333 1.7979222879463348 2 3 1
4170 1390 2 0.5242 4.219187476499324 9.5648198361911 0.8233351837825043 2 3 1
4169 1390 2 0.5242 4.620405473132419 9.853192667693765 2.2415203119551155 2 3 1
2253 751 2 0.5242 1.5044662948473144 12.379229856418174 4.814941273151493 0 1 -2
1447 483 1 -1.0484 6.161978609058226 11.660259124206508 4.504955673493406 -1 2 -1
151 51 1 -1.0484 1.531506403634999 8.969507641815875 3.026559390091221 0 0 0
152 51 2 0.5242 2.3782578939107273 9.215569325630831 2.7188953550575787 0 0 0
899 300 2 0.5242 2.4037119418972273 11.574656063812098 1.0776292968336982 1 0 1
4406 1469 2 0.5242 3.4555760059317553 5.603743761298833 3.9686147325886822 -1 1 2
277 93 1 -1.0484 6.650472662003019 10.680898437882572 33.650237975789565 0 0 -1
279 93 2 0.5242 7.153115489805102 9.964308620790819 33.218234188236316 0 0 -1
278 93 2 0.5242 7.224964887268702 10.776863786557202 34.42544456449353 0 0 -1
898 300 1 -1.0484 1.7865715613713358 11.805796291268958 35.82190223793333 1 0 0
900 300 2 0.5242 1.6751421341501413 12.736739460180225 36.05784505214277 1 0 0
2598 866 2 0.5242 4.900710953619089 8.18978558451327 5.046074138956518 0 -1 1
1448 483 2 0.5242 5.556440650102977 11.747461325038794 5.347565980373609 -1 2 -1
4325 1442 2 0.5242 6.7263999596581545 9.175851400918638 3.3803443460155926 1 -1 2
3052 1018 1 -1.0484 11.162633020824412 8.040327509319274 6.211633823228163 0 2 0
3053 1018 2 0.5242 11.790390757360719 8.861247446532984 6.460365584358102 0 2 0
3957 1319 2 0.5242 9.803631572645475 11.179945369642418 4.945584599678852 2 0 1
3956 1319 2 0.5242 10.627235582771577 12.420234441554904 4.6036434915304225 2 0 1
3955 1319 1 -1.0484 10.486586217729327 11.503560338532697 4.308886366616413 2 0 1
4004 1335 2 0.5242 12.47104148485208 10.150809671502943 4.677396934924571 -1 1 0
1352 451 2 0.5242 9.525954025502742 8.126965524852205 6.2909607400445715 2 0 1
1351 451 1 -1.0484 8.628758449941929 8.440279028983689 6.473377186903242 2 0 1
1353 451 2 0.5242 8.662025038550782 9.434009824958865 6.332415823361855 2 0 1
1872 624 2 0.5242 8.751604561623953 10.18810375571109 1.291305310667071 0 1 1
1067 356 2 0.5242 7.609500129119698 11.496033104328413 5.570255839155296 0 1 1
1870 624 1 -1.0484 8.420118792089546 10.447639936980663 35.84721579784115 0 1 0
736 246 1 -1.0484 12.146308228896244 11.357617361514366 1.5804101195953937 -1 1 0
3054 1018 2 0.5242 11.737933515156426 7.287668623193601 6.257551040297298 0 2 0
4005 1335 2 0.5242 12.700105332572715 9.163270945895233 3.5353373331897036 -1 1 0
4003 1335 1 -1.0484 13.23021447310226 9.66000122375483 4.233828656833758 -1 1 0
2613 871 2 0.5242 12.969573430664374 8.234973680393377 1.1477325746676175 1 0 -1
2611 871 1 -1.0484 12.201864861389675 8.427483317256815 1.7571662336626441 1 0 -1
3713 1238 2 0.5242 9.839059055364133 6.9772751417400345 1.122975526000461 1 -1 -1
3712 1238 1 -1.0484 10.237298098960729 6.707057356050755 1.9928519722354379 1 -1 -1
3714 1238 2 0.5242 11.1016367480437 7.1508677510651175 1.9072872171908681 1 -1 -1
2612 871 2 0.5242 11.982075152921933 9.33637993692253 1.5050844275599315 1 0 -1
738 246 2 0.5242 12.769059201791762 12.031676317305545 1.073754702838069 -1 1 0
702 234 2 0.5242 13.934895087964694 11.19351302888142 4.27166368476945 0 1 0
700 234 1 -1.0484 14.150912947688623 12.141723480178433 4.575383018449139 0 1 0
701 234 2 0.5242 15.186505288105428 12.17769207470419 4.451369779342358 0 1 0
2122 708 1 -1.0484 16.495142964637704 11.295691799185034 1.5350905278530846 2 -1 0
2304 768 2 0.5242 16.194251812472075 9.52733051106671 5.131114493232853 2 0 0
2302 768 1 -1.0484 15.691901647009345 9.358233385700064 5.912463463240383 2 0 0
1334 445 2 0.5242 16.944457657213704 11.835161710754225 3.3190059710713524 0 -2 0
1333 445 1 -1.0484 16.679168380665285 12.440513935051396 4.149322511789801 0 -2 0
1335 445 2 0.5242 16.943169150132896 11.991552596932314 4.9773765180266425 0 -2 0
2900 967 2 0.5242 16.25687350252344 7.557536983592279 4.716205328230181 2 -2 0
112 38 1 -1.0484 16.779634822196922 9.023756834111557 3.109712809438308 2 0 2
2303 768 2 0.5242 14.683264809022928 9.361049119264916 5.641513011415853 2 0 0
113 38 2 0.5242 17.632920191432625 9.157245094878352 3.6254229968436715 2 0 2
114 38 2 0.5242 16.75070477144881 9.892647922164267 2.5640457410529334 2 0 2
4404 1468 2 0.5242 19.71852667400557 9.03925673995561 34.630828328242806 -1 0 -1
4402 1468 1 -1.0484 19.604524958402358 9.976978078189736 34.20538774195204 -1 0 -1
3034 1012 1 -1.0484 19.67528223826309 12.319102547227931 5.016924634350258 -2 3 1
2339 780 2 0.5242 14.62911897425261 7.311126084313802 35.836820243052905 1 3 -1
2394 798 2 0.5242 24.192284958021226 7.938506497234294 4.936579512888134 1 -1 0
3094 1032 1 -1.0484 22.82397120755639 7.1032267555637025 3.56782830063363 0 -1 1
2393 798 2 0.5242 25.303885068112983 6.831278363440919 5.0638935172033115 1 -1 0
4050 1350 2 0.5242 19.9027757881361 9.518485438094931 3.826869623066856 1 0 -2
4048 1350 1 -1.0484 19.11980390465178 9.508598184827198 4.460375262025852 1 0 -2
2881 961 1 -1.0484 23.174063539689442 10.370703102315632 5.189541320927538 2 -1 1
2882 961 2 0.5242 22.669656999227396 9.698758509829485 4.6046378219439 2 -1 1
4049 1350 2 0.5242 19.248376660986217 10.377902509512474 4.887306060935538 1 0 -2
4403 1468 2 0.5242 19.67662097750581 10.703819439492152 34.980637910937034 -1 0 -1
1586 529 2 0.5242 22.97226593798004 10.866513867023968 0.9289823750108313 0 0 0
407 136 2 0.5242 21.94411610342722 8.505352813881096 3.3026441541038096 -1 0 2
406 136 1 -1.0484 21.479075951225216 9.435253374511026 3.3868577385972727 -1 0 2
3095 1032 2 0.5242 22.67770888039671 7.117433654973944 2.572378501311157 0 -1 1
3049 1017 1 -1.0484 19.415997390560293 11.615953652336662 1.2255886989491316 1 1 1
2883 961 2 0.5242 23.404354310312122 9.898817530308369 6.074936218563146 2 -1 1
1717 573 1 -1.0484 22.28063106841994 7.325993205041306 1.068489577706775 -2 2 1
1719 573 2 0.5242 22.794572594965768 6.755686868485826 35.8573382820088 -2 2 0
1585 529 1 -1.0484 23.227892419204846 10.922786522045046 1.9502243735378453 0 0 0
408 136 2 0.5242 22.108822270225012 10.046954922695837 2.883927142717635 -1 0 2
4368 1456 2 0.5242 24.596033907504303 9.623565386285174 1.380936759167961 -1 0 2
3035 1012 2 0.5242 20.639954365514047 12.382946978193395 5.397004937756827 -2 3 1
3051 1017 2 0.5242 19.518862532697195 12.679682459877178 1.1914478217996192 1 1 1
3050 1017 2 0.5242 19.98033665329825 11.364557838788834 1.9593537474523415 1 1 1
1546 516 1 -1.0484 20.313018480239826 14.03817771747281 1.6342545753501216 2 1 1
1547 516 2 0.5242 20.746595696887038 13.729977001960982 36.1869554380886 2 1 0
2392 798 1 -1.0484 25.15157229736451 7.927741306837346 5.069437615921922 1 -1 0
4139 1380 2 0.5242 22.055629449484126 11.245080082612258 6.227157980042564 -2 1 -2
1718 573 2 0.5242 21.348428087595714 7.475372550507177 36.20076732730934 -2 2 0
4281 1427 2 0.5242 28.975258553599694 7.97606901916029 6.125219746690266 -2 2 0
3758 1253 2 0.5242 26.202043164566312 8.642887119810577 3.784737239827776 0 1 2
4493 1498 2 0.5242 29.636138433044234 9.091712125018276 4.230599496196742 -2 1 1
4492 1498 1 -1.0484 28.876420323480797 9.196709828720545 4.876383805661922 -2 1 1
4494 1498 2 0.5242 28.13708718389742 9.205224551662406 4.177483670953947 -2 1 1
275 92 2 0.5242 25.61096546493466 8.455654510926802 6.714956713095858 1 0 0
1849 617 1 -1.0484 29.33298928981084 11.747122842083122 5.303187553290646 0 2 -2
998 333 2 0.5242 27.938779828653153 12.076875515682511 4.438192239881831 -1 -1 1
997 333 1 -1.0484 27.022998103377915 12.008976698746558 3.9540028935954905 -1 -1 1
1587 529 2 0.5242 23.977704932756968 11.581691178944642 1.9073716166725805 0 0 0
976 326 1 -1.0484 31.34843572270573 11.847259467931634 3.414735794353768 0 -1 2
1850 617 2 0.5242 30.09526973551927 11.836130886249641 4.563841166282659 0 2 -2
3759 1253 2 0.5242 26.500011932582982 8.883219358501355 2.2186070230918813 0 1 2
3757 1253 1 -1.0484 26.93195299181773 8.798222601275148 3.1702378925327994 0 1 2
1851 617 2 0.5242 29.1901504635853 10.636083592232984 5.2189463472691155 0 2 -2
4262 1421 2 0.5242 27.825442467450205 10.377144998769428 7.668623048766784 -2 -1 1
2321 774 2 0.5242 30.418229991478597 8.555004083290278 2.6912696964299734 1 2 0
2320 774 1 -1.0484 31.02033839069968 9.184300902330467 3.1456898686253383 1 2 0
2322 774 2 0.5242 31.966804180307868 8.992757055251493 2.719562727776655 1 2 0
999 333 2 0.5242 27.278375941202032 12.634302557997357 3.1477174275588347 -1 -1 1
3515 1172 2 0.5242 27.43460726556708 10.152447036118097 35.31437399500189 -2 -2 -1
2582 861 2 0.5242 35.492607320212514 9.0109471481558 35.38813525595484 -1 -1 -2
978 326 2 0.5242 31.17158308988997 10.967981538580892 3.194928831687074 0 -1 2
977 326 2 0.5242 31.231127508484303 12.266227136327377 2.4914316838380297 0 -1 2
3127 1043 1 -1.0484 30.264431610314112 13.106873230927837 1.0088523259869338 1 2 0
2297 766 2 0.5242 35.72713067954422 11.268883146303516 1.274632979430635 -2 1 3
32 11 2 0.5242 1.4382437978631004 10.809297846757918 3.415880355897498 0 3 3
31 11 1 -1.0484 2.0110676425578946 11.670398102541196 3.2341958804719666 0 3 3
33 11 2 0.5242 2.9317750811599814 11.280408891778569 3.0996028015970905 0 3 3
1302 434 2 0.5242 33.41766585541362 6.286063295357134 4.216347034948189 -2 1 -1
1301 434 2 0.5242 34.67814961029623 6.124031875718448 5.3180481532329535 -2 1 -1
2945 982 2 0.5242 34.95899941055265 8.993646946061554 6.343657491375413 2 2 2
2946 982 2 0.5242 33.74448763945749 9.706640597410003 5.943415300885055 2 2 2
2944 982 1 -1.0484 34.69374704793145 9.544563397000278 5.609242601905006 2 2 2
3108 1036 2 0.5242 34.347189629836805 8.790323144681414 3.612189959994614 -3 0 2
3107 1036 2 0.5242 34.004583273989766 9.550685094619967 2.1838886106597117 -3 0 2
3106 1036 1 -1.0484 33.61845634460593 8.954434973622226 2.956293230632229 -3 0 2
2298 766 2 0.5242 34.51908404206854 11.623274736122326 2.100526196624209 -2 1 3
2296 766 1 -1.0484 34.816030325870344 10.945978383998163 1.3993380559881525 -2 1 3
3593 1198 2 0.5242 1.1062529212203835 7.721033834412965 4.188829545183271 -1 0 -1
3594 1198 2 0.5242 1.5663015203715145 6.232429432673053 4.521183748969447 -1 0 -1
3167 1056 2 0.5242 5.60531935457823 14.498034673211393 4.786306778662814 1 -1 1
3168 1056 2 0.5242 6.17241981301027 14.864276825690874 3.397442312550648 1 -1 1
3601 1201 1 -1.0484 5.7738914406711705 15.982645639796331 2.442645981358884 0 0 -1
3603 1201 2 0.5242 5.475550734897865 15.697518137454693 1.5652460989061507 0 0 -1
511 171 1 -1.0484 2.385302751893818 14.947073822051598 3.637630947607705 2 0 1
512 171 2 0.5242 2.021143164782239 15.616872866403696 4.230813742169715 2 0 1
513 171 2 0.5242 2.9088978095692943 14.475085934361134 4.214687114179716 2 0 1
754 252 1 -1.0484 35.69550472848293 16.739442865322022 4.957485155440896 0 0 -2
2546 849 2 0.5242 1.5967354286234878 15.197784138738651 36.08033354412247 3 2 1
192 64 2 0.5242 3.3438913173135565 17.90051591269499 4.046280249791665 1 1 1
190 64 1 -1.0484 4.105510722701563 17.320084938097043 4.148302768292494 1 1 1
191 64 2 0.5242 4.199683814417016 16.807299911493725 3.2400844227467345 1 1 1
2547 849 2 0.5242 1.6404476411857114 14.440766513638279 2.157936015915218 3 2 2
2545 849 1 -1.0484 1.28224514166162 14.423975396630516 1.1636349268062638 3 2 2
3602 1201 2 0.5242 6.55693734085148 16.495386219031346 2.1640050023566344 0 0 -1
2259 753 2 0.5242 4.987355822233545 17.682873875959167 7.019646049883433 2 0 3
574 192 1 -1.0484 5.957981905826754 19.527222234159765 3.8425396933092313 -1 2 0
575 192 2 0.5242 6.702104664346092 19.305562738937866 4.56300696964129 -1 2 0
576 192 2 0.5242 5.28732373183843 18.756950980562962 3.732268200636087 -1 2 0
3166 1056 1 -1.0484 6.4430690490043006 14.278437569752873 4.220671450733528 1 -1 1
737 246 2 0.5242 11.9283828254985 11.816035380915135 2.429606909174359 -1 1 0
3887 1296 2 0.5242 7.733129987108868 15.290156441752927 34.6845033185175 0 -1 -1
51 17 2 0.5242 4.892554637954814 18.636807943733743 36.09088367424641 1 0 1
2417 806 2 0.5242 7.9775926328744164 15.203846089072284 4.880058774288181 -1 -2 3
2416 806 1 -1.0484 8.725886938519595 15.846996674538818 5.097885498647517 -1 -2 3
2418 806 2 0.5242 9.308862948789642 15.167208495856537 5.645582107130955 -1 -2 3
3394 1132 1 -1.0484 10.947332381300747 14.087975331874809 5.860514319239052 -1 1 1
3396 1132 2 0.5242 11.996216185358234 14.211089461598586 5.898217936726547 -1 1 1
1169 390 2 0.5242 9.379927278888939 15.12374091810782 3.1888790649879595 0 2 -2
3395 1132 2 0.5242 10.681678321494656 13.926070023969041 6.857799654151436 -1 1 1
1168 390 1 -1.0484 10.049239127219737 14.851771709488496 2.588255218710928 0 2 -2
1170 390 2 0.5242 9.438673717340533 14.736470550091541 1.7812596723761558 0 2 -2
3579 1193 2 0.5242 12.126139361790651 16.76817859037986 4.191592522151575 -2 -1 0
3577 1193 1 -1.0484 12.476309674102907 16.066447668461297 3.5297409269201263 -2 -1 0
3578 1193 2 0.5242 11.621135930205838 15.413540388790619 3.4442254558081444 -2 -1 0
3285 1095 2 0.5242 13.069408128687918 18.997656328046222 35.34728806605836 0 -2 2
2242 748 1 -1.0484 7.809168801379716 18.325691050280337 5.72944046441747 3 0 0
2243 748 2 0.5242 8.232538549922928 17.350690481279504 5.456067568847613 3 0 0
3888 1296 2 0.5242 9.098644232642314 14.913678036934334 35.34634973345281 0 -1 -1
3886 1296 1 -1.0484 8.17050246085499 15.120383869502195 35.60873749164325 0 -1 -1
2244 748 2 0.5242 8.617457024490012 18.866587504421137 5.937096484618545 3 0 0
3033 1011 2 0.5242 11.34595987729538 18.858372847177307 4.885812406504546 0 3 0
122 41 2 0.5242 13.87447979306241 15.81917325769386 2.764285673024066 3 1 0
121 41 1 -1.0484 14.6481344922611 15.6781584143551 2.0996045177280225 3 1 0
123 41 2 0.5242 14.964573299533019 16.594349535637107 1.9689185545176262 3 1 0
2407 803 1 -1.0484 19.4035188855834 17.99893147848359 4.681354854787385 -2 -3 1
2634 878 2 0.5242 16.05211462464527 14.901821260850847 2.463246167234572 -1 1 0
2632 878 1 -1.0484 16.98588693434997 14.527585447258142 2.6608604168486787 -1 1 0
2633 878 2 0.5242 16.80278695532398 13.71625447379539 3.293332057961973 -1 1 0
2250 750 2 0.5242 18.80268471266657 16.20537752669432 4.660562435508141 -2 0 1
2249 750 2 0.5242 18.303991868130467 14.961147328766094 3.8789362614291427 -2 0 1
12 4 2 0.5242 13.760683010771508 15.556867286387524 35.9966545394073 -2 -2 -1
3036 1012 2 0.5242 19.46380119436986 13.27686551636631 4.714456362885507 -2 3 1
873 291 2 0.5242 13.067432439329563 15.158883257454267 4.677811232722662 -1 1 2
872 291 2 0.5242 13.625958529649832 13.634740927892322 5.015471373221998 -1 1 2
871 291 1 -1.0484 13.450272848013002 14.543221295412335 5.452020359196389 -1 1 2
2248 750 1 -1.0484 19.09286443329117 15.177783317313711 4.471447806891935 -2 0 1
1487 496 2 0.5242 19.686283746290453 15.635039963754373 6.333245855009537 0 0 1
2522 841 2 0.5242 17.089239897446465 17.23238854147387 6.671925880469631 -1 2 1
4124 1375 2 0.5242 24.17020089539494 11.612464600410998 4.7218739562735195 -1 -1 -1
1578 526 2 0.5242 17.34173240787826 14.766253703205543 0.9454444934331805 -1 0 0
1577 526 2 0.5242 17.76357312458137 14.180729535309887 35.05646999982034 -1 0 -1
89 30 2 0.5242 18.945230711120445 16.752689288041083 35.85293345741851 1 -1 -2
1548 516 2 0.5242 21.000771268959685 13.796420868600324 2.302630444974647 2 1 1
88 30 1 -1.0484 19.891211808124034 16.73718523199738 0.7554668023563392 1 -1 -1
90 30 2 0.5242 20.064213494781665 15.902175764332725 1.2266818964211337 1 -1 -1
4080 1360 2 0.5242 22.405036901918756 14.575744414651796 3.57104048811347 0 1 2
2069 690 2 0.5242 20.96283573232734 16.023468424805145 4.463468314619853 0 1 -1
4078 1360 1 -1.0484 22.375071774425418 13.60232026319445 3.3175238576155412 0 1 2
4079 1360 2 0.5242 23.089195939273083 13.27109134054598 3.8953233479335787 0 1 2
4448 1483 2 0.5242 20.543518898564617 17.828206498756106 1.8992373504548576 1 -1 0
1670 557 2 0.5242 22.55032431641315 16.703393386465073 34.31089080611426 -3 0 1
484 162 1 -1.0484 24.786006451151668 17.082466749168397 1.2180769135506533 0 -1 0
4123 1375 1 -1.0484 24.578142623192527 12.550062385595421 4.69112741013741 -1 -1 -1
2068 690 1 -1.0484 22.00711020862063 15.94676653835608 4.263156127444291 0 1 -1
2070 690 2 0.5242 22.28409357325759 16.40955634367566 4.982553216259516 0 1 -1
4447 1483 1 -1.0484 20.922169539065745 18.592431073976396 2.438486351416774 1 -1 0
2987 996 2 0.5242 22.724148507581543 18.554035821656157 8.312324051796544 2 0 -1
2408 803 2 0.5242 19.846759160333352 18.185192335700663 3.6990428651100413 -2 -3 1
209 70 2 0.5242 26.628926890439388 15.885719934406346 8.05775954766372 -2 0 0
4125 1375 2 0.5242 25.460933669214377 12.43198911726989 4.181955734974018 -1 -1 -1
3841 1281 1 -1.0484 25.55505518414123 14.840778854161188 5.876343532509825 -1 2 0
3843 1281 2 0.5242 24.91060593350048 14.879092448027126 6.675193491314985 -1 2 0
3842 1281 2 0.5242 25.236076402682066 14.063622643965674 5.2541167861908775 -1 2 0
485 162 2 0.5242 25.453676033584312 17.3690896318752 36.01233158343996 0 -1 -1
4270 1424 1 -1.0484 27.758584215852668 13.542143191083575 1.8697403123401244 1 0 1
4271 1424 2 0.5242 27.384188800189936 13.40625679098282 0.8447771025322051 1 0 1
261 87 2 0.5242 29.06819235845304 17.93627057323161 3.2439135218263573 0 1 2
3326 1109 2 0.5242 26.42654163188514 15.770244864006349 3.862793585118741 -1 0 1
1720 574 1 -1.0484 29.501612190539 16.79109467773311 1.1443079832879517 -3 2 0
2022 674 2 0.5242 28.470862947330396 15.668952104102463 6.410926222020199 1 0 -1
2020 674 1 -1.0484 28.724286939179503 16.521200671771584 5.9010475631070065 1 0 -1
486 162 2 0.5242 25.286490055200247 16.934710476129087 2.066971229000021 0 -1 0
3327 1109 2 0.5242 27.33804529221629 16.84376991175687 3.2524193606091893 -1 0 1
259 87 1 -1.0484 28.372655110744994 18.286511211524335 3.8337595558162105 0 1 2
3325 1109 1 -1.0484 26.6853266522726 16.08179408009837 2.9990156543894257 -1 0 1
260 87 2 0.5242 28.566765714448536 17.74816736853407 4.700052909526011 0 1 2
1721 574 2 0.5242 28.98143985822242 17.01238057955339 35.74270268169223 -3 2 -1
1533 511 2 0.5242 34.67045122951929 12.72609199797038 6.081597125877622 0 -1 1
2942 981 2 0.5242 34.453680368842114 13.336743281058187 3.933767644322949 -2 -1 0
2943 981 2 0.5242 32.98878828530184 12.945359503299292 3.5503787285066988 -2 -1 0
755 252 2 0.5242 35.04215287524258 16.766884080376315 4.270650611065902 0 0 -2
756 252 2 0.5242 36.11004098910823 17.617756506381795 4.774205317932657 0 0 -2
4290 1430 2 0.5242 30.42071302132754 11.7933160704492 6.841776587462589 0 -1 2
4288 1430 1 -1.0484 31.36993257250463 11.669586760210018 7.1778367729372565 0 -1 2
4289 1430 2 0.5242 31.975909780915497 12.238696395819153 6.575717848691097 0 -1 2
1531 511 1 -1.0484 33.68414669723323 12.770282919954804 6.177450148795024 0 -1 1
1532 511 2 0.5242 33.51231801828658 13.7204033240795 6.4060562956958895 0 -1 1