LAMMPS data file via write_data, version 23 Jun 2022, timestep = 2000822

4500 atoms
2 atom types
3000 bonds
1 bond types
1500 angles
1 angle types

0.6205351294075783 36.36646487058822 xlo xhi
0.61267206186076 36.366327938131704 ylo yhi
0.5880999757921082 36.365900024205104 zlo zhi

Masses

1 15.9994
2 1.00794

Pair Coeffs # lj/cut/tip4p/long/gpu

1 0.16275 3.16435
2 0 0

Bond Coeffs # harmonic

1 250 0.9572

Angle Coeffs # harmonic

1 60 104.52

Atoms # full

1500 500 2 0.5242 3.8997079748140484 3.4267662353021207 4.060860541717389 1 1 -1
1498 500 1 -1.0484 3.326058204724293 4.233090564200303 4.322403578417157 1 1 -1
1499 500 2 0.5242 3.2094760454634743 4.170836815759321 5.341793562296634 1 1 -1
448 150 1 -1.0484 1.544634579836143 4.851389911436717 2.408870903017415 0 2 1
450 150 2 0.5242 1.5000491822410376 5.7753267364327625 2.7649238729532595 0 2 1
501 167 2 0.5242 4.955441057711434 5.572718156291665 4.098035902297147 1 -2 -1
449 150 2 0.5242 2.2796801449717274 4.541416424226121 3.0380366189183228 0 2 1
480 160 2 0.5242 4.777815439346288 0.6616642055914687 4.0093835822251656 1 1 1
2815 939 1 -1.0484 5.2305697673467915 2.215515541467657 3.736149929670436 0 1 0
15 5 2 0.5242 4.935744264669452 6.550333863657862 1.5301032533365662 1 1 2
2817 939 2 0.5242 5.438319863989158 2.210627655720966 4.792597330105405 0 1 0
2816 939 2 0.5242 6.19603845952286 2.172008368560715 3.403289655867778 0 1 0
14 5 2 0.5242 3.930105487095123 6.683678656719773 36.14126757840759 1 1 1
13 5 1 -1.0484 4.905507598589947 6.87156045438374 0.6511610062374609 1 1 2
499 167 1 -1.0484 5.584052886874831 6.168293240557638 3.667996970810945 1 -2 -1
2913 971 2 0.5242 3.936749614624154 0.6329428103702562 36.16012050511533 2 -1 0
2937 979 2 0.5242 2.364998703308947 5.253486666354446 0.9190616596027277 0 1 0
24 8 2 0.5242 6.500912604908996 2.473644002516264 7.183910110188703 1 0 1
22 8 1 -1.0484 5.802197587225087 2.0559689406456196 6.568299013101871 1 0 1
1653 551 2 0.5242 9.23674250989294 3.257749862200724 1.0640112755899058 0 -2 1
1651 551 1 -1.0484 8.17497750082767 3.37201350143244 1.1858142382567751 0 -2 1
1652 551 2 0.5242 7.9550679131544975 2.8119134301233717 2.0072013188955227 0 -2 1
996 332 2 0.5242 11.106472252546649 3.709429777102328 1.6381300893821005 0 3 -1
994 332 1 -1.0484 10.832722303295132 2.8748683383052387 1.2355282127258946 0 3 -1
2324 775 2 0.5242 11.575695177436828 2.4650849486489785 4.069211164569586 0 0 2
1713 571 2 0.5242 11.645309984960353 5.691800066570055 35.67589669664014 2 0 -2
2325 775 2 0.5242 11.099266247351993 3.1418510021421935 5.424569678132149 0 0 2
2323 775 1 -1.0484 11.210249519650413 3.275764476254785 4.432465611984157 0 0 2
2666 889 2 0.5242 7.524838447432212 0.6781089895971624 6.696137214081693 0 1 -1
4283 1428 2 0.5242 6.352406918123821 5.915999376003811 5.465414575725784 0 0 0
2401 801 1 -1.0484 12.791907618414413 5.137015551605834 2.243698096491917 1 -2 1
2402 801 2 0.5242 12.282939000229474 4.776575670172729 3.007460292140619 1 -2 1
2403 801 2 0.5242 12.939023970766451 6.071724547531516 2.4872268488078424 1 -2 1
1308 436 2 0.5242 9.76863256003401 3.5050826182007837 7.303980174785694 -1 -1 2
3979 1327 1 -1.0484 8.183731301550196 3.29166860617224 7.261662076780881 0 -1 3
3980 1327 2 0.5242 7.758906214474962 4.064216635440889 6.684593443230009 0 -1 3
4215 1405 2 0.5242 10.389825687432829 1.7667296680373037 33.84125895160304 1 1 0
4213 1405 1 -1.0484 10.54689566972239 1.1319874316179632 34.54981943138246 1 1 0
4214 1405 2 0.5242 10.650145462320586 1.7209993011296492 35.25983815143992 1 1 0
2746 916 1 -1.0484 7.951263999546181 2.0216994997209836 3.341220745292102 0 1 0
2747 916 2 0.5242 8.704714875261823 2.3191459311814566 3.7488425303306108 0 1 0
995 332 2 0.5242 11.114832842260471 2.203576485666343 1.8917736112958552 0 3 -1
986 329 2 0.5242 15.503721431496993 4.3908412891921405 1.6584138429291149 0 2 2
3642 1214 2 0.5242 17.11131114993322 6.8920230257628745 2.6624843413759396 -1 3 0
987 329 2 0.5242 14.013221361780033 4.5584976483886805 1.342422632627771 0 2 2
985 329 1 -1.0484 14.96702577748117 4.507872479004735 0.9050586159363214 0 2 2
2777 926 2 0.5242 14.408470761413149 4.369197908848767 6.154888101134401 0 -1 0
2776 926 1 -1.0484 14.48445458513752 4.241642957265569 5.2355323472456 0 -1 0
2778 926 2 0.5242 13.974124587749602 5.024009623724073 4.795511756964806 0 -1 0
2700 900 2 0.5242 16.055310330831556 3.5265862151259455 5.081815252010659 0 1 1
185 62 2 0.5242 13.756664972613935 7.3870748041386785 7.309214207241322 -2 -2 2
2511 837 2 0.5242 17.23989856321845 4.572967312129109 3.3253423309975982 0 -1 1
2509 837 1 -1.0484 17.285817343100764 5.190694129181586 2.531181379269344 0 -1 1
2510 837 2 0.5242 17.968888159357807 4.801020601793536 1.8889147368046932 0 -1 1
2406 802 2 0.5242 17.588540764282662 7.758402797906676 8.065740825141337 -1 -3 1
100 34 1 -1.0484 11.801958852286525 0.9987733359177705 3.176399325372968 1 -2 0
3972 1324 2 0.5242 16.38105204836857 0.6945269607746114 6.608941824616286 0 0 -1
184 62 1 -1.0484 13.486003850800174 6.356800387039299 7.4657276614412815 -2 -2 2
186 62 2 0.5242 12.532512603091847 6.450225927692256 7.502322515577787 -2 -2 2
2698 900 1 -1.0484 17.029708444001862 3.4578959387798838 4.701152874562819 0 1 1
3389 1130 2 0.5242 22.171292591995332 1.363491499371892 3.048095113213354 -1 0 -1
3390 1130 2 0.5242 23.74448502555872 1.079874008111374 2.6238630616758427 -1 0 -1
3388 1130 1 -1.0484 22.8811162769783 0.6325158788484231 2.9516749441215073 -1 0 -1
3164 1055 2 0.5242 19.00004191716911 3.9813039329946385 4.273658984916494 -2 2 2
3163 1055 1 -1.0484 19.885381455270913 3.87491776423614 4.640198240917612 -2 2 2
3165 1055 2 0.5242 19.683810462059792 3.2729361016546954 5.433820455708282 -2 2 2
1701 567 2 0.5242 22.610158775066914 6.520459003913777 3.1657269994325437 -1 0 0
1699 567 1 -1.0484 23.571271466229447 6.360903072077574 2.945994447789804 -1 0 0
210 70 2 0.5242 20.309195400132417 2.914194566962191 3.198324401106621 0 1 0
208 70 1 -1.0484 20.439584926114115 2.021303944896041 2.59917977007778 0 1 0
284 95 2 0.5242 19.036925707381613 35.710967391620855 0.7023618851553018 -1 1 3
283 95 1 -1.0484 19.220774686187966 34.84074251100225 1.0689079660282592 -1 1 3
3923 1308 2 0.5242 21.00636567175262 34.58388613694626 7.510495616777494 -2 -1 1
3924 1308 2 0.5242 20.553926652062835 35.26530075905589 6.238835124483899 -2 -1 1
3922 1308 1 -1.0484 20.381936417591717 35.33121977714667 7.1876338467307255 -2 -1 1
209 70 2 0.5242 20.31772730713086 2.365281606004853 1.7202019967628768 0 1 0
30 10 2 0.5242 22.453064461581445 35.4257479912594 1.4160502821821932 0 0 1
4049 1350 2 0.5242 26.038078995507043 2.521524278561031 5.944501658817736 -3 -1 3
2987 996 2 0.5242 28.241012494590063 2.5967923226809937 4.48986734419052 -1 -1 2
2988 996 2 0.5242 28.891254987890616 3.6980077246169527 3.7396068095717414 -1 -1 2
2986 996 1 -1.0484 29.146602524227916 2.8859230344455553 4.157374647245533 -1 -1 2
1747 583 1 -1.0484 28.274363733967494 5.330570865025351 3.3824353855130145 -2 2 5
1749 583 2 0.5242 28.256066775641642 5.463905063178034 4.332837809584895 -2 2 5
1748 583 2 0.5242 27.28970383231801 5.1813744263762285 3.211623177009768 -2 2 5
4395 1465 2 0.5242 25.944432257214583 4.658436284620995 1.529119957139689 -1 -1 2
4393 1465 1 -1.0484 25.88045212907375 4.187525781273653 2.504587358765675 -1 -1 2
1401 467 2 0.5242 25.118396627193846 7.852006503309831 1.7194683457319726 0 1 2
1164 388 2 0.5242 29.539111935084723 1.527420644813383 2.168922420483569 0 2 -1
4394 1465 2 0.5242 25.019967677830536 4.607385661662285 2.8072340685939516 -1 -1 2
1399 467 1 -1.0484 26.045342058015358 8.327380099178248 1.7757586667777518 0 1 2
1400 467 2 0.5242 26.583066484503743 8.035405759927254 0.9166755134007462 0 1 2
1162 388 1 -1.0484 30.171058530776527 1.0977011747557395 1.5071392027203765 0 2 -1
4048 1350 1 -1.0484 26.38907208258937 2.104566158202989 5.2360735798412605 -3 -1 3
1031 344 2 0.5242 29.96987272006603 2.7399727892784074 5.581155331484388 -2 1 4
3876 1292 2 0.5242 25.872316123016216 4.502457319764964 8.717552811912388 0 -1 1
3325 1109 1 -1.0484 31.07143263393537 5.293109277878629 1.0341101569118183 1 2 -1
1998 666 2 0.5242 25.735003242151212 0.6419050368150039 1.0594587275252179 3 2 0
4076 1359 2 0.5242 0.65051611858617 3.990270902641865 1.2708077326653795 1 0 1
1943 648 2 0.5242 32.41473959011532 4.685927611409876 2.244126538370949 2 2 0
1942 648 1 -1.0484 33.12124151134365 4.3990711406051375 2.9347068791861846 2 2 0
87 29 2 0.5242 33.36645359963525 5.440374442050687 4.148809804194123 0 1 -1
329 110 2 0.5242 32.89238565340522 2.3082895018430967 4.505406492457185 -3 0 -2
86 29 2 0.5242 33.65331360952099 6.899471795887264 4.281565877102514 0 1 -1
85 29 1 -1.0484 33.48370871047222 6.187357653174125 4.868386117370593 0 1 -1
3065 1022 2 0.5242 32.473463271018815 7.208166625124503 5.783923091797041 -1 0 2
1944 648 2 0.5242 33.20567260998064 3.4178212958644716 2.6007621904515204 2 2 0
4077 1359 2 0.5242 35.76540372899923 4.406167757731785 35.788247370596366 0 0 0
1163 388 2 0.5242 29.82508226285672 1.5495599044564123 0.6184380626266651 0 2 -1
2793 931 2 0.5242 35.35153235242608 0.7622009511242273 3.1842665008964612 0 0 -1
2791 931 1 -1.0484 35.74808100565149 35.65753474287288 3.4250676315875555 0 -1 -1
2792 931 2 0.5242 35.078686584037264 35.33258299853004 4.039546777825182 0 -1 -1
1032 344 2 0.5242 31.5271761640615 2.5499437799659237 6.124419384733254 -2 1 4
328 110 1 -1.0484 33.107485830069386 2.144759646635028 5.449281179179633 -3 0 -2
330 110 2 0.5242 33.71971815733026 2.956635882110486 5.595992532314767 -3 0 -2
4067 1356 2 0.5242 33.45491302414898 36.10632507001044 5.039501592622747 -2 -1 0
4075 1359 1 -1.0484 35.93497868113755 3.608703637243588 36.23824495254992 0 0 0
3763 1255 1 -1.0484 33.172383256562284 6.94939231889262 35.99833500683583 1 1 -2
3764 1255 2 0.5242 32.529177629743145 6.45717130999776 0.8416518350042936 1 1 -1
680 227 2 0.5242 33.18229178263709 1.3947801658322487 1.1242104870689826 0 1 0
681 227 2 0.5242 31.76012549084364 1.5267818566597045 1.9565369415787612 0 1 0
679 227 1 -1.0484 32.74667910841467 1.7005005504714001 2.014448415954849 0 1 0
500 167 2 0.5242 5.053381361632803 6.996819330338913 3.5339284762854444 1 -2 -1
984 328 2 0.5242 5.6453712084641445 10.80785701227118 2.3022194751275857 1 0 -2
982 328 1 -1.0484 5.020437231153486 10.888853302667831 3.1651357782871945 1 0 -2
983 328 2 0.5242 4.542827639958915 9.92364535367912 3.2907099666606503 1 0 -2
4414 1472 1 -1.0484 2.950389972478915 12.364287251010296 2.3542892887818203 1 -1 1
4416 1472 2 0.5242 3.3773786146958136 12.49783224600806 1.4851109985362059 1 -1 1
1580 527 2 0.5242 5.881605227595928 11.66386742269572 4.919161369633267 1 1 0
4413 1471 2 0.5242 3.536628190781317 8.339440990144578 4.559810582651486 1 -1 -1
4411 1471 1 -1.0484 3.950442719365941 8.505478354276653 3.6152802046591455 1 -1 -1
1581 527 2 0.5242 5.157547444813532 12.136114142814295 6.241355684253476 1 1 0
1579 527 1 -1.0484 6.0661777409778574 11.955431461229601 5.902461429491351 1 1 0
2939 980 2 0.5242 8.502769940348031 10.56875791126952 3.0623503223895305 -1 2 1
4412 1471 2 0.5242 3.127930270738696 8.40829105723589 2.9810530876491463 1 -1 -1
692 231 2 0.5242 7.6077511682657235 10.717962892805817 1.2237928217660938 0 2 -1
691 231 1 -1.0484 6.745378200510712 10.964352276160236 0.6655990172766676 0 2 -1
387 129 2 0.5242 7.43141416682555 9.641696513290688 5.51599920830294 1 0 1
385 129 1 -1.0484 7.770351702721959 9.434696188049369 4.700237569028429 1 0 1
1712 571 2 0.5242 12.289687716936285 7.092063229855642 36.08882588612995 2 0 -2
1711 571 1 -1.0484 11.627971436494484 6.6847516912075715 35.50249380745092 2 0 -2
2298 766 2 0.5242 8.11093735439125 4.9065531748428866 2.00637284565286 1 0 1
2940 980 2 0.5242 9.244752879536849 9.433020243519774 2.160422523274744 -1 2 1
2938 980 1 -1.0484 9.026844641111762 10.4181455762854 2.1789025868033995 -1 2 1
2297 766 2 0.5242 6.972548283083202 5.859804427823659 2.730173088833102 1 0 1
2296 766 1 -1.0484 7.9192866694130295 5.855065344407979 2.2264268708284125 1 0 1
4156 1386 1 -1.0484 10.937794780883465 7.796928663893421 4.560775161539755 1 1 1
4158 1386 2 0.5242 10.334746677101617 7.618847988073664 3.7437085524804674 1 1 1
4157 1386 2 0.5242 10.503621426785346 7.307745650953791 5.31666264009859 1 1 1
3386 1129 2 0.5242 10.149519142158468 7.5272131896290775 1.2686003258028031 1 2 -2
3385 1129 1 -1.0484 9.637479061884422 7.857695457678455 2.009094772968277 1 2 -2
3387 1129 2 0.5242 8.858662700534744 7.151288809674409 2.1028682064606192 1 2 -2
3104 1035 2 0.5242 9.463140783602377 12.000476883003905 2.6745428963091498 1 0 0
1831 611 1 -1.0484 10.214095911587563 10.236050673820314 5.20644713340998 0 0 -2
1832 611 2 0.5242 10.570073452392789 9.28217447166104 5.051308895999967 0 0 -2
2412 804 2 0.5242 10.817949090303882 11.696730918641624 5.0859084966938575 0 2 1
2554 852 1 -1.0484 13.563441310293538 7.992989138395065 1.3757602083594338 0 0 1
2556 852 2 0.5242 14.377176094205417 7.833794324639068 0.7972145880466135 0 0 1
592 198 1 -1.0484 20.070468192648896 8.205225650353814 1.9781805337272507 2 2 -2
258 86 2 0.5242 15.289742931165359 9.601510888611568 4.264488016678454 1 2 1
3641 1214 2 0.5242 16.93818644604455 7.515983669143283 1.2833204820743682 -1 3 0
3640 1214 1 -1.0484 17.154532225036338 7.742855710983901 2.2042095067269445 -1 3 0
594 198 2 0.5242 19.09127650796635 7.956665301602605 2.0364053605299794 2 2 -2
256 86 1 -1.0484 15.813647188036775 8.797919379829112 4.401193130227899 1 2 1
257 86 2 0.5242 16.19564196474896 8.559589255232028 3.463612261170356 1 2 1
1312 438 1 -1.0484 13.705954085538563 6.743440051001781 4.428901119267692 -1 1 1
1314 438 2 0.5242 12.910976501691476 7.258591677056728 4.182199903864989 -1 1 1
3643 1215 1 -1.0484 17.703945203077247 8.694079140092304 6.4563835296311 1 1 2
1313 438 2 0.5242 14.497261987116197 7.290300421940623 4.332297580053339 -1 1 1
3645 1215 2 0.5242 17.139016781970877 8.61822520368138 5.674161788866831 1 1 2
3644 1215 2 0.5242 17.514536014226955 9.60469021738656 6.88987535114341 1 1 2
3307 1103 1 -1.0484 14.582188263457287 11.337610817051525 3.8228172769942215 0 2 -1
3308 1103 2 0.5242 14.31873607300542 12.344086756416917 3.8094788535124327 0 2 -1
1778 593 2 0.5242 17.884756683075533 11.629676329444724 3.9373731240168364 -1 1 0
3936 1312 2 0.5242 15.381862407616902 8.919064889268457 7.063469342563156 -1 -1 1
998 333 2 0.5242 16.93999600989979 11.484928746518088 6.134290665697916 -1 0 0
2410 804 1 -1.0484 11.421185046197511 12.57595004373115 5.287062632697382 0 2 1
1147 383 1 -1.0484 13.023106440047862 10.805571930829297 7.129124501562451 0 -1 3
1149 383 2 0.5242 12.747973552188286 11.20433114355613 6.247417339581839 0 -1 3
2289 763 2 0.5242 19.766089756270496 10.148413244223491 1.8423213115844637 4 0 0
2287 763 1 -1.0484 20.067786732781506 11.079650373205975 1.8442640959001484 4 0 0
2411 804 2 0.5242 10.840700851416461 13.10299728307559 5.854712128222511 0 2 1
1115 372 2 0.5242 20.530561350138992 5.768969803421465 4.403478210071832 -1 0 -2
593 198 2 0.5242 20.441449984534863 7.677845743100145 2.74434546395087 2 2 -2
2423 808 2 0.5242 17.415539415781314 12.326371867982676 8.961519620639052 1 1 0
1116 372 2 0.5242 20.803006450156975 7.138876562371515 5.059486447935938 -1 0 -2
1114 372 1 -1.0484 20.904107629859794 6.688236266934144 4.172836709277323 -1 0 -2
2633 878 2 0.5242 20.84649329623135 9.174040592058919 7.18306873425024 1 1 -1
319 107 1 -1.0484 24.02782805537792 9.417902040251432 3.9968203018738837 0 -2 0
321 107 2 0.5242 23.069707242201098 9.68929201315451 4.1690014944095495 0 -2 0
2632 878 1 -1.0484 20.571799141634248 8.251275804173464 6.9425486562958545 1 1 -1
1700 567 2 0.5242 23.992588602822405 6.881972262405138 3.715273324916851 -1 0 0
320 107 2 0.5242 24.271443187846586 8.858895503159017 4.722882582400034 0 -2 0
2375 792 2 0.5242 22.205940821231042 9.2487165628867 1.472957179855114 -1 -1 1
4464 1488 2 0.5242 20.945468532785167 11.080126917408442 8.127661832178493 0 -1 3
3885 1295 2 0.5242 22.12040640770519 11.79407689272508 4.441085294397296 -1 -2 1
690 230 2 0.5242 25.649717529702468 6.8237439793773556 5.344728394369706 0 1 1
3883 1295 1 -1.0484 21.64310324681021 10.936671763000811 4.028354127564237 -1 -2 1
3884 1295 2 0.5242 21.077536759686872 10.631889811639647 4.728308506558163 -1 -2 1
2293 765 1 -1.0484 23.759452434780375 11.81252663414278 7.558643034645096 2 0 0
2288 763 2 0.5242 20.849391993060255 11.09648615202658 2.513554441344898 4 0 0
4462 1488 1 -1.0484 21.165073803947752 10.898776119327469 7.162049145485386 0 -1 3
2294 765 2 0.5242 23.759617243491846 12.158511004193167 6.656997311817398 2 0 0
4463 1488 2 0.5242 22.11295522560211 11.017043355308152 7.1442280869525865 0 -1 3
1204 402 1 -1.0484 27.14630829098403 5.796268297736352 6.188912339782919 -2 0 -1
1205 402 2 0.5242 27.757787729689493 6.479314065732346 6.628349507531368 -2 0 -1
688 230 1 -1.0484 24.67063116431408 6.952379512397838 5.373894607768451 0 1 1
2376 792 2 0.5242 23.46011709472796 8.85600013216466 2.084764864371688 -1 -1 1
2374 792 1 -1.0484 23.057061026961005 8.927557781274153 1.1546420416065986 -1 -1 1
689 230 2 0.5242 24.456338978096117 6.081823673125417 5.710280626568398 0 1 1
2901 967 2 0.5242 29.090635712029705 7.456988882784363 4.52607191138305 0 1 -1
2899 967 1 -1.0484 29.555710160819228 8.245728507487602 4.845580911439908 0 1 -1
2900 967 2 0.5242 30.332054888022956 8.318587694382835 4.116130818677801 0 1 -1
795 265 2 0.5242 27.709851392725497 8.68184454236921 34.804202885889254 1 1 -1
760 254 1 -1.0484 25.668385900337935 11.925555733739722 4.56576010483635 -1 1 1
1206 402 2 0.5242 26.819145772409346 5.395982539574423 6.973318992406558 -2 0 -1
761 254 2 0.5242 25.288234990140314 11.047564863459485 4.143575391313077 -1 1 1
762 254 2 0.5242 26.645082522913974 12.046687334291816 4.209440576934746 -1 1 1
1334 445 2 0.5242 28.863836104599013 9.712034336732621 5.479164053796342 0 1 1
1299 433 2 0.5242 26.51224524209346 9.788015813023904 1.4227147110178961 -1 1 1
1297 433 1 -1.0484 26.61104256554107 10.764406284795882 1.22490547162321 -1 1 1
1335 445 2 0.5242 27.577949726187526 10.398947127612757 6.154829736705536 0 1 1
1333 445 1 -1.0484 28.483078456895043 10.646603408747191 5.790311904928126 0 1 1
1298 433 2 0.5242 26.953020299749177 11.066893070560958 2.0950163300879074 -1 1 1
1228 410 1 -1.0484 34.4559897925556 8.374988122155354 3.4672417417401205 1 3 0
1230 410 2 0.5242 33.53109832599084 8.478304337083461 3.188733410235623 1 3 0
1229 410 2 0.5242 34.59165086288658 9.248530335986198 3.865613063966904 1 3 0
4415 1472 2 0.5242 3.7567675172321136 11.755966406374453 2.7619905180792808 1 -1 1
3623 1208 2 0.5242 31.71986085762021 9.093988147888563 2.244653279056558 0 1 1
3622 1208 1 -1.0484 31.64648908679339 8.378230765668992 2.9521512987602665 0 1 1
2319 773 2 0.5242 33.21175166305067 11.712604122404741 2.482343079400141 0 1 -1
1568 523 2 0.5242 0.7781546932716148 8.007880667930387 3.2425095093845346 0 2 1
1567 523 1 -1.0484 1.3834427687740394 7.860917773980586 2.5313190864700994 0 2 1
1569 523 2 0.5242 1.0918627034200625 8.265980080597334 1.6458795292180064 0 2 1
2317 773 1 -1.0484 32.44362172387986 11.439545454363543 3.0237051985254606 0 1 -1
2318 773 2 0.5242 32.81569409083266 11.149962471428696 3.9085079900511426 0 1 -1
166 56 1 -1.0484 34.11083502417905 10.881141721866477 4.939143007607243 0 -1 1
168 56 2 0.5242 34.53756435695467 11.783736699329515 4.793249831074545 0 -1 1
167 56 2 0.5242 34.08374206925677 10.628313618815898 5.924272944926574 0 -1 1
1352 451 2 0.5242 34.90620002540179 12.999134163580177 2.592594390989432 0 1 1
2872 958 1 -1.0484 30.78191881719821 9.950491624412088 7.346208045258243 0 1 0
56 19 2 0.5242 0.7354917248918856 13.708581964338967 3.9504243614334222 1 -1 2
55 19 1 -1.0484 35.70141297929304 13.044366035349197 4.0450517338291885 0 -1 2
3601 1201 1 -1.0484 1.0218453267178562 11.291426263932715 0.6357943154133656 0 1 0
3602 1201 2 0.5242 1.7477431745464485 11.767887145004703 1.077484776220595 0 1 0
3603 1201 2 0.5242 0.6878357009430396 10.781454665535922 1.3646187786049286 0 1 0
3624 1208 2 0.5242 31.200884100322572 7.729464098822491 2.46330388712635 0 1 1
1353 451 2 0.5242 34.926608051462885 12.388677464426905 1.1322128270919645 0 1 1
1351 451 1 -1.0484 34.28728719975825 12.658665585817426 1.8369044174395042 0 1 1
1517 506 2 0.5242 2.3740471545705115 14.942699555932288 4.052983861583508 2 1 3
2501 834 2 0.5242 3.591649402379796 15.747315985981238 6.062036973150067 -1 0 0
2500 834 1 -1.0484 2.8882326663182916 15.233628689139094 5.6825593772011995 -1 0 0
2502 834 2 0.5242 3.0611062832204925 14.378757304743308 6.179326860607321 -1 0 0
1518 506 2 0.5242 2.5085065299309344 13.65865269147272 3.031026934987288 2 1 3
1516 506 1 -1.0484 1.9015489550505087 14.524937767685303 3.3110300840905666 2 1 3
3355 1119 1 -1.0484 6.245121923054224 17.300965400773464 0.7606532292357157 1 0 0
1523 508 2 0.5242 36.17217041894684 18.00868216180698 4.168008715875667 -1 0 0
1305 435 2 0.5242 1.9651729270697662 15.801080340679867 1.7865873878611773 1 2 -1
1524 508 2 0.5242 36.35311328770195 19.313670229973347 5.152277676036754 -1 0 0
729 243 2 0.5242 4.537506410535094 17.840511163895183 0.5922486737806594 1 4 -2
2551 851 1 -1.0484 5.431853955231787 16.517450843207477 5.957298050211564 0 1 0
728 243 2 0.5242 2.977440505192873 17.95879201544698 0.8473896846220206 1 4 -2
727 243 1 -1.0484 3.75953023713041 18.562743333072913 0.6271451872774548 1 4 -2
3611 1204 2 0.5242 7.279230951735131 15.886738497582208 4.8845722158277365 0 -1 0
4257 1419 2 0.5242 1.0829874251789922 15.930250715098127 6.04482921847043 0 -2 0
3357 1119 2 0.5242 7.300943420512035 17.302367915053424 0.7707289618970066 1 0 0
1303 435 1 -1.0484 1.8504451200692154 16.501863750628832 1.1419016730814247 1 2 -1
3105 1035 2 0.5242 9.888778541954146 12.941208779706411 3.9610975782466054 1 0 0
3103 1035 1 -1.0484 9.437091259361281 12.999353960201551 3.0869927380623197 1 0 0
3619 1207 1 -1.0484 7.803120001419827 12.674428401744116 7.555229429919174 2 4 -2
3620 1207 2 0.5242 8.201940951617594 11.858462983448735 7.839501245836815 2 4 -2
3863 1288 2 0.5242 9.164713993514836 14.167166881946843 1.580108840071134 2 2 -3
3862 1288 1 -1.0484 9.442495804589562 14.251510212773459 36.3218468916229 2 2 -4
3864 1288 2 0.5242 10.337198019043228 13.751690327211831 36.354428832653994 2 2 -4
3621 1207 2 0.5242 7.198086289297384 12.333102185744785 6.802535795279196 2 4 -2
1833 611 2 0.5242 9.291835736348233 10.145011193934796 4.908542349915967 0 0 -2
4431 1477 2 0.5242 9.730244162473888 9.488156914984254 8.48391997781006 0 1 1
390 130 2 0.5242 12.047104798826883 14.097115413488376 3.0130566548017357 1 1 1
488 163 2 0.5242 8.92935372314913 14.643471869842047 5.891996235696383 1 -1 0
489 163 2 0.5242 9.022915687177672 13.629285598297294 7.016134197113191 1 -1 0
487 163 1 -1.0484 9.620186139511402 14.315407299417258 6.55618501797236 1 -1 0
3612 1204 2 0.5242 7.213923617078408 15.016797653534374 3.5705409136445283 0 -1 0
3668 1223 2 0.5242 10.49587425704421 16.592730827667104 3.0027898552328587 1 2 3
3667 1223 1 -1.0484 11.299533275870358 16.033998433946707 2.8867898524010203 1 2 3
3669 1223 2 0.5242 11.72625452323228 16.25905327090448 2.009031884957659 1 2 3
3807 1269 2 0.5242 11.981050378947502 16.78555624048602 4.401304704974455 1 1 2
3806 1269 2 0.5242 12.026535187324836 17.188448430817886 5.80585945562703 1 1 2
3610 1204 1 -1.0484 7.824895969652209 15.507537284701959 4.155896300229177 0 -1 0
651 217 2 0.5242 10.46633230472354 15.473878822775458 6.774549404003083 0 -1 3
4377 1459 2 0.5242 9.037870321229201 16.02342504999406 36.00754669884168 0 -3 1
389 130 2 0.5242 12.285910985236812 13.138255525715707 4.211763349118975 1 1 1
388 130 1 -1.0484 12.842110156105605 13.60170926333325 3.5051097190911964 1 1 1
3748 1250 1 -1.0484 12.12783726880092 16.93915946678967 0.6647571274355535 -1 0 2
4301 1434 2 0.5242 14.58397311701306 13.717916707375139 6.848362091848466 -1 0 3
4300 1434 1 -1.0484 14.864183061231195 13.001572216008052 7.659041376140636 -1 0 3
4302 1434 2 0.5242 14.230371667779204 12.304038702693488 7.598042285449223 -1 0 3
2768 923 2 0.5242 14.612561122040846 15.595479475542932 5.518882084980913 1 0 -1
3091 1031 1 -1.0484 15.049104775848184 16.775401991483513 4.80063390073525 1 0 2
3093 1031 2 0.5242 14.06478192082376 17.065997372170507 4.967777280882957 1 0 2
2769 923 2 0.5242 13.760824846612369 14.274674624436349 5.035218315655346 1 0 -1
1029 343 2 0.5242 16.833813019803195 16.81827848571223 6.822249332979498 1 0 2
3805 1269 1 -1.0484 12.384316389461274 17.509841565813357 4.965920546806319 1 1 2
3092 1031 2 0.5242 15.440358676839464 17.184730590615708 5.5991756550245295 1 0 2
1027 343 1 -1.0484 16.059721566324342 17.308627429507276 7.0407947472889685 1 0 2
997 333 1 -1.0484 16.64586203539689 11.055026979278567 7.0003638364179235 -1 0 0
3536 1179 2 0.5242 17.848290349919992 18.374757191851703 2.808482090112363 2 0 2
999 333 2 0.5242 16.153720544876876 11.912675853617468 7.334030944861927 -1 0 0
3537 1179 2 0.5242 19.023371236370156 19.188456069372172 2.1328521579316435 2 0 2
4261 1421 1 -1.0484 20.033014373756732 17.579537386909674 4.777764430428153 -1 0 3
3954 1318 2 0.5242 16.959472242369472 13.542074968353186 3.479324493018436 -1 -2 3
4262 1421 2 0.5242 19.741056975851247 17.80458549820197 3.8578328109242155 -1 0 3
509 170 2 0.5242 15.545760244888612 18.179477854983038 3.737867752067552 1 2 1
508 170 1 -1.0484 15.834919368531082 18.733449774151275 2.9996111433477712 1 2 1
510 170 2 0.5242 15.115936750747275 19.463783785144095 2.8589345265037647 1 2 1
4385 1462 2 0.5242 18.947909944819976 19.66231430131026 36.113646434239925 0 0 -1
2767 923 1 -1.0484 14.265148153401256 14.644160213620884 5.844549461022039 1 0 -1
1389 463 2 0.5242 13.790127693131277 14.444072173898808 1.0548372161281592 0 2 2
3395 1132 2 0.5242 15.321753998959354 17.71535093896039 1.3471339155784543 0 0 1
3749 1250 2 0.5242 13.117370113631775 17.022305420372486 36.20771352201093 -1 0 1
1131 377 2 0.5242 23.142556188694677 13.266391212786173 3.9733723300837065 2 2 -1
3535 1179 1 -1.0484 18.804688577186504 18.2355033307188 2.4953195817122387 2 0 2
3953 1318 2 0.5242 15.67335164642463 14.418311314778492 3.774830422750372 -1 -2 3
3952 1318 1 -1.0484 16.272319712326432 14.180502862401442 3.0306520923249805 -1 -2 3
2217 739 2 0.5242 22.747509673022105 14.630807236893506 1.9833694989099517 -1 1 1
2215 739 1 -1.0484 23.269741505999843 13.90085735417059 2.4639423757349572 -1 1 1
4263 1421 2 0.5242 19.982285228330248 18.387457625033914 5.283590053353904 -1 0 3
2313 771 2 0.5242 19.855748820086077 13.148994018547869 6.674470711006227 1 -2 -1
2216 739 2 0.5242 23.05388881904563 13.067307510052025 2.0391631224883016 -1 1 1
2954 985 2 0.5242 19.22533183071344 16.200861566776894 1.1239505072962896 -1 1 1
1129 377 1 -1.0484 23.25128799352265 12.916615095475512 4.894318135537169 2 2 -1
694 232 1 -1.0484 29.25318097523466 13.154513985404678 5.6906724791322505 -2 -1 0
695 232 2 0.5242 29.057356078477152 13.550954321409547 6.468534338233695 -2 -1 0
3116 1039 2 0.5242 26.92191458486923 15.460097751270386 4.718564818422391 1 2 -1
3117 1039 2 0.5242 28.265201208399212 14.323457250830609 5.010413333845988 1 2 -1
2612 871 2 0.5242 26.584022958413428 18.049623515167788 2.143885350324277 1 0 2
3905 1302 2 0.5242 30.54667165681441 13.46403927052202 4.103071575835683 -1 -1 1
903 301 2 0.5242 24.91609169863365 16.650635631165894 4.7900251015859165 1 1 1
696 232 2 0.5242 28.817791585939435 12.219427170081264 5.836766890450511 -2 -1 0
901 301 1 -1.0484 25.741652537760892 16.233132303542604 5.321694002393693 1 1 1
902 301 2 0.5242 25.379711050590448 16.292361929197924 6.311347439634288 1 1 1
3990 1330 2 0.5242 27.280325436366496 16.83663258302886 0.8023988707732019 -1 2 3
3988 1330 1 -1.0484 27.696182522562008 16.901559159815104 1.7058377870122847 -1 2 3
1484 495 2 0.5242 29.823964152773296 18.044404041972488 1.9338151046133072 -2 0 -1
3989 1330 2 0.5242 28.478173344621766 16.238681071920908 1.7050731453858703 -1 2 3
1130 377 2 0.5242 24.186101963591128 12.860319120347679 4.9057947296272015 2 2 -1
3115 1039 1 -1.0484 27.82010858153081 15.048525425482092 4.30209605784416 1 2 -1
3983 1328 2 0.5242 26.90249375017441 15.266620079192112 2.4625796420056707 2 3 -1
3982 1328 1 -1.0484 26.245465904040127 14.707084577851704 2.002701924428515 2 3 -1
3984 1328 2 0.5242 25.529624879471072 14.60402666642843 2.604012798108355 2 3 -1
554 185 2 0.5242 29.492156129016315 14.55696005733118 36.08044240993222 1 -1 -1
553 185 1 -1.0484 29.893547536309423 15.0934061904717 1.153326393284054 1 -1 0
1242 414 2 0.5242 27.876489583949397 18.073639217541352 7.320326203038119 0 -2 0
1240 414 1 -1.0484 27.871481014089156 18.00842990576199 6.315041048206698 0 -2 0
1241 414 2 0.5242 27.066590810166534 17.36914210582669 6.1507984745672895 0 -2 0
805 269 1 -1.0484 28.115284676653538 12.353007675807461 3.01822786873582 1 0 -1
807 269 2 0.5242 27.703979840611677 13.227902451992426 2.8176567775328265 1 0 -1
57 19 2 0.5242 34.99416492312831 13.68618393583216 4.434170666385165 0 -1 2
1485 495 2 0.5242 30.20779925488889 17.881649353167134 3.494845817354092 -2 0 -1
3911 1304 2 0.5242 33.66286093688244 14.436094029179682 36.173878887949 -1 1 -1
555 185 2 0.5242 29.96855896991338 14.44400013238765 1.9454659842619408 1 -1 0
3906 1302 2 0.5242 31.344028414128445 12.666646577909988 2.996495535646148 -1 -1 1
3904 1302 1 -1.0484 30.592182115666144 13.476907970951556 3.1676652505967278 -1 -1 1
1969 657 1 -1.0484 35.82976744730682 16.432597547796185 3.7377852790624266 -1 2 1
1971 657 2 0.5242 0.6637457887258336 15.74931120585923 3.356526129266389 0 2 1
1970 657 2 0.5242 35.52990169725867 16.943919714853877 2.923569781487235 -1 2 1
1479 493 2 0.5242 31.693911444717294 16.9232527645496 2.16259519467025 -1 0 1
1477 493 1 -1.0484 32.26207153792637 16.143346819677795 1.856218762924773 -1 0 1
1478 493 2 0.5242 31.513721600680178 15.360442445174057 1.7309678545542806 -1 0 1