LAMMPS data file via write_data, version 7 Aug 2019, timestep = 2000216

4500 atoms
2 atom types
3000 bonds
1 bond types
1500 angles
1 angle types

-1.7019895718610449e+00 3.7232989571854183e+01 xlo xhi
-1.7261673540645539e+00 3.7283167354069363e+01 ylo yhi
-1.7466533010622314e+00 3.7250653301065938e+01 zlo zhi

Masses

1 1.00794
2 15.9994

Pair Coeffs # lj/cut/coul/long/gpu

1 0 0
2 0.155394 3.16556

Bond Coeffs # harmonic

1 5000 1

Angle Coeffs # harmonic

1 500 109.47

Atoms # full

1807 603 2 -8.4760000000000002e-01 -4.0289129016697434e-01 3.7256662127264768e+00 4.3375302217301881e+00 4 3 0
1809 603 1 4.2380000000000001e-01 -5.1904810938300394e-01 4.2402446951330353e+00 3.4880902363247621e+00 4 3 0
4374 1458 1 4.2380000000000001e-01 3.0193412932540845e+01 -9.4136697838254324e-01 -5.7143232978738401e-01 -1 4 1
1808 603 1 4.2380000000000001e-01 5.4100095247422164e-01 3.4026617951106344e+00 4.4051113676528937e+00 4 3 0
3994 1332 2 -8.4760000000000002e-01 3.4955821806315072e+01 1.1602414902756042e+01 1.4649578344311550e+01 -3 -1 1
3792 1264 1 4.2380000000000001e-01 3.9232401051910539e+00 4.1316031646566742e+00 1.5244201944765186e+00 -2 -1 -1
1788 596 1 4.2380000000000001e-01 -8.6961638093087223e-01 1.0099549596609849e+00 4.9669215535623721e+00 1 1 4
4381 1461 2 -8.4760000000000002e-01 -9.3124800419794074e-01 3.0453220095266440e+00 -1.6078925976186038e+00 -4 1 -4
4057 1353 2 -8.4760000000000002e-01 3.6520991614308551e-02 -5.4150720396021002e-01 3.3522832570874721e+00 2 0 -2
547 183 2 -8.4760000000000002e-01 3.0831363102391700e+00 2.7332506621948349e+00 4.9766004340219130e+00 5 3 2
1141 381 2 -8.4760000000000002e-01 1.3952989980784429e+00 -2.3530844218873082e-03 1.6763147768929509e-01 3 -2 3
1142 381 1 4.2380000000000001e-01 2.3826662856267191e+00 1.5548129855905612e-01 1.6255833958319688e-01 3 -2 3
2805 935 1 4.2380000000000001e-01 2.6348124598611156e+00 1.9673993964983238e+00 3.0743861437750288e+00 2 4 4
4383 1461 1 4.2380000000000001e-01 -1.5154031264717598e+00 2.6852101347365451e+00 -8.8062789254609619e-01 -4 1 -4
515 172 1 4.2380000000000001e-01 -8.6035080466636715e-01 3.5618302889668767e+00 1.1814689027189544e+00 -1 2 2
514 172 2 -8.4760000000000002e-01 -2.6400458867935228e-01 4.3417250245885910e+00 1.3711197253596881e+00 -1 2 2
1787 596 1 4.2380000000000001e-01 -1.1399581361448494e+00 -9.3134080262738284e-02 6.1400742253108289e+00 1 1 4
2804 935 1 4.2380000000000001e-01 1.7431342580582334e+00 2.9103479845251510e+00 2.0834596844537923e+00 2 4 4
207 69 1 4.2380000000000001e-01 2.0739926842699035e+01 9.4477912728435101e+00 1.7447271570746292e+01 -1 2 1
4058 1353 1 4.2380000000000001e-01 7.9494454440781137e-01 -3.2074761789670370e-01 3.9653828872125425e+00 2 0 -2
4158 1386 1 4.2380000000000001e-01 2.7930160511846292e+01 1.3762495856069032e+01 -1.7108922495862013e+00 0 -4 1
2803 935 2 -8.4760000000000002e-01 1.9447100667214623e+00 1.9681523590813668e+00 2.3507910342530218e+00 2 4 4
1143 381 1 4.2380000000000001e-01 9.9938168626352208e-01 3.8964860898659603e-01 9.9794225065184872e-01 3 -2 3
1343 448 1 4.2380000000000001e-01 2.9839402273173381e+01 1.7306882271981532e+01 1.0429368982915571e+01 -1 -1 0
548 183 1 4.2380000000000001e-01 3.5966303330778269e+00 3.4799495248229269e+00 4.5539938633389152e+00 5 3 2
1031 344 1 4.2380000000000001e-01 6.2777954079265941e+00 5.7942738678467522e+00 3.7511316399338934e+00 0 -1 4
1032 344 1 4.2380000000000001e-01 4.6473577376891342e+00 5.8824350106331904e+00 3.7423242410205839e+00 0 -1 4
168 56 1 4.2380000000000001e-01 8.3979531737239057e+00 -1.6559554082302981e+00 4.2850267540395626e+00 -4 -2 2
3790 1264 2 -8.4760000000000002e-01 4.4803833260425767e+00 3.9053213321589748e+00 2.3233071394265101e+00 -2 -1 -1
2536 846 2 -8.4760000000000002e-01 -6.8610617456024703e-01 1.7745631165704239e+01 1.7648363114961665e+01 0 -1 1
166 56 2 -8.4760000000000002e-01 8.7069326749668043e+00 -1.5451149117303729e+00 3.3405280872270620e+00 -4 -2 2
997 333 2 -8.4760000000000002e-01 8.3234278517032632e+00 5.1297902687004395e+00 4.8950495347258638e+00 1 -4 -1
2431 811 2 -8.4760000000000002e-01 5.5458298753810800e+00 -7.9280543832837136e-01 1.7617360353540703e+00 2 5 2
1900 634 2 -8.4760000000000002e-01 3.6549583606873327e+01 1.5565815352893996e+01 -1.1298579367981787e+00 -2 -1 3
4248 1416 1 4.2380000000000001e-01 2.7374829135397956e+01 1.7022426765930074e+01 6.9084619503093059e+00 -2 -4 -3
1063 355 2 -8.4760000000000002e-01 6.5140377205589637e+00 1.7502488502392972e+00 1.9902289329411973e+00 1 -2 -4
2432 811 1 4.2380000000000001e-01 5.5950958661470080e+00 1.6801535844690862e-01 1.4892865674272810e+00 2 5 2
3791 1264 1 4.2380000000000001e-01 4.9932985206283966e+00 3.0657175912203494e+00 2.1449362503475347e+00 -2 -1 -1
1064 355 1 4.2380000000000001e-01 7.4305035259265502e+00 1.9252708693195761e+00 1.6306606499249985e+00 1 -2 -4
1065 355 1 4.2380000000000001e-01 6.5481665401559557e+00 1.7195319071479678e+00 2.9890898890643003e+00 1 -2 -4
2033 678 1 4.2380000000000001e-01 1.2402479806178469e+01 1.1989441591203032e-01 -4.4580485547816262e-01 3 1 -1
998 333 1 4.2380000000000001e-01 9.1611762111572297e+00 4.5955699782927226e+00 5.0073797277842926e+00 1 -4 -1
1613 538 1 4.2380000000000001e-01 1.1567989034160293e+01 1.9988339156549775e+00 9.6656121490926505e-02 3 1 6
1612 538 2 -8.4760000000000002e-01 1.0621319257139975e+01 2.0809656572470723e+00 4.0794742653858895e-01 3 1 6
3772 1258 2 -8.4760000000000002e-01 1.1068623967133263e+01 3.0360362532186533e+00 3.9343474337067557e+00 3 -3 2
3773 1258 1 4.2380000000000001e-01 1.1189590429631084e+01 2.0953344990321332e+00 3.6176775985157361e+00 3 -3 2
3774 1258 1 4.2380000000000001e-01 1.1961405298710858e+01 3.4344755306818024e+00 4.1441566476844596e+00 3 -3 2
1614 538 1 4.2380000000000001e-01 1.0518502135040784e+01 1.6176682439336019e+00 1.2880699716596289e+00 3 1 6
2032 678 2 -8.4760000000000002e-01 1.3198936400863975e+01 6.6089621597662251e-01 -7.1563030598086441e-01 3 1 -1
2143 715 2 -8.4760000000000002e-01 1.3852809834727752e+01 3.4632501265461322e+00 4.5036366650126922e+00 1 -1 2
276 92 1 4.2380000000000001e-01 1.3205741614492673e+01 6.6958393544520476e+00 3.1017207067081545e+00 0 1 2
286 96 2 -8.4760000000000002e-01 1.0687424759130586e+01 6.5305069450078612e+00 -5.7775646464653452e-01 0 -1 1
277 93 2 -8.4760000000000002e-01 3.2487877532256860e+01 -1.6861188211605103e+00 1.4955301818195391e+01 -3 5 4
3788 1263 1 4.2380000000000001e-01 8.8320944511751414e+00 3.4930299246559677e+00 -1.1826102919286650e+00 0 -1 1
2254 752 2 -8.4760000000000002e-01 1.5204218204226329e+01 -8.2259085645236929e-01 1.1209964540993353e+00 2 0 0
2389 797 2 -8.4760000000000002e-01 1.2287002486243903e+01 6.7715518252185136e-02 3.2871169544122516e+00 -3 1 0
2391 797 1 4.2380000000000001e-01 1.3071846356193156e+01 3.5560667797324541e-01 2.7385094639905132e+00 -3 1 0
2390 797 1 4.2380000000000001e-01 1.2362074230292764e+01 -9.0859387923447743e-01 3.4896402093147829e+00 -3 1 0
1324 442 2 -8.4760000000000002e-01 1.0710863394958626e+01 9.6037666125442644e+00 -1.5300328627047279e+00 -3 -4 1
3563 1188 1 4.2380000000000001e-01 2.4881623152057948e+01 1.7152242323273683e+01 8.2799986187380661e+00 -2 2 -1
2034 678 1 4.2380000000000001e-01 1.4034145938124903e+01 1.8188475290136785e-01 -4.4580676447043510e-01 3 1 -1
2145 715 1 4.2380000000000001e-01 1.4789140317890979e+01 3.7300486994041933e+00 4.7315296044595820e+00 1 -1 2
2902 968 2 -8.4760000000000002e-01 1.7844362377611425e+01 3.5051731692634185e+00 2.3240501244846721e+00 4 -2 -4
3623 1208 1 4.2380000000000001e-01 4.1863792408358140e+00 1.7613461422784013e+01 1.4547881169501771e+01 1 -4 -4
238 80 2 -8.4760000000000002e-01 1.8845074078628819e+01 4.8251805563829153e-01 1.1931578513778933e+00 4 -2 6
239 80 1 4.2380000000000001e-01 1.8295985543933789e+01 1.2939003370452631e+00 1.3931384723578484e+00 4 -2 6
1880 627 1 4.2380000000000001e-01 1.9517168975040324e+01 1.1822663576771153e-01 3.9169927331158192e+00 0 -1 -2
1164 388 1 4.2380000000000001e-01 1.8419658942373335e+01 -1.1950263020799068e+00 5.1319436001610708e-01 -3 1 2
2903 968 1 4.2380000000000001e-01 1.7070235478206413e+01 3.8022560017059046e+00 1.7652110129797620e+00 4 -2 -4
250 84 2 -8.4760000000000002e-01 1.9992422010334852e+01 5.1904636909972517e+00 1.5077575909391414e+00 -2 1 -1
251 84 1 4.2380000000000001e-01 2.0184972146076358e+01 4.8906985214996395e+00 5.7346807931898258e-01 -2 1 -1
1560 520 1 4.2380000000000001e-01 2.0913385602987923e+01 -7.6362741817927160e-01 -1.1065195554744547e+00 0 -1 -5
3756 1252 1 4.2380000000000001e-01 1.7518416814087917e+01 3.8154319030224562e+00 -1.5148768589423522e+00 1 3 -3
2904 968 1 4.2380000000000001e-01 1.8626214786250582e+01 4.1055627291669072e+00 2.1565044402491673e+00 4 -2 -4
3754 1252 2 -8.4760000000000002e-01 1.7423726937206194e+01 3.3330544561584654e+00 -6.4414293875408268e-01 1 3 -3
368 123 1 4.2380000000000001e-01 1.6743999581368708e+01 3.3265554407397104e+00 4.0804581774092936e+00 0 5 1
367 123 2 -8.4760000000000002e-01 1.6720127867702399e+01 3.0781667609644661e+00 5.0487376704943374e+00 0 5 1
3755 1252 1 4.2380000000000001e-01 1.7723369622298879e+01 2.3854153910048943e+00 -7.5380879958903024e-01 1 3 -3
3423 1141 1 4.2380000000000001e-01 2.0862824539163608e+01 4.3316309039407210e+00 3.3445378502164003e+00 0 -3 -4
1558 520 2 -8.4760000000000002e-01 2.0743286977772549e+01 1.1927253511167502e-01 -1.5439962569678622e+00 0 -1 -5
2255 752 1 4.2380000000000001e-01 1.6182506666767274e+01 -1.0027909011614451e+00 1.0194525025912897e+00 2 0 0
288 96 1 4.2380000000000001e-01 1.0400602223187011e+01 5.9263330242369587e+00 -1.3210859156965116e+00 0 -1 1
2343 781 1 4.2380000000000001e-01 2.2476178903759163e+01 2.2195177990950019e+00 7.3306925718170346e-01 -5 2 1
1879 627 2 -8.4760000000000002e-01 2.0252730978720386e+01 -5.5356049343750180e-01 4.0034957873204347e+00 0 -1 -2
240 80 1 4.2380000000000001e-01 1.9780786025542181e+01 7.5894026646193424e-01 9.7437532764406098e-01 4 -2 6
1559 520 1 4.2380000000000001e-01 2.1189343236118447e+01 8.4329223993194802e-01 -1.0180098147716770e+00 0 -1 -5
2984 995 1 4.2380000000000001e-01 2.6357943974045224e+01 1.8861399009486957e-01 -7.8836744224096034e-02 0 -3 1
2983 995 2 -8.4760000000000002e-01 2.6708370945600254e+01 -3.4112996799460360e-01 6.9343542255552704e-01 0 -3 1
3409 1137 2 -8.4760000000000002e-01 2.5460130477527208e+01 1.7568834669200077e+00 5.7032265858295927e+00 1 0 0
3410 1137 1 4.2380000000000001e-01 2.5117922815550003e+01 9.8632138550026038e-01 5.1656769884106151e+00 1 0 0
2342 781 1 4.2380000000000001e-01 2.2772728920286234e+01 2.5582270114763661e+00 -8.3648846086809836e-01 -5 2 1
471 157 1 4.2380000000000001e-01 2.2221423707561723e+01 1.8674136040842040e+00 3.6233052340524097e+00 -4 2 5
469 157 2 -8.4760000000000002e-01 2.2803988077031917e+01 2.0970573661221530e+00 2.8437447712903197e+00 -4 2 5
470 157 1 4.2380000000000001e-01 2.3561110111656312e+01 1.4461036714687316e+00 2.7902886936963132e+00 -4 2 5
67 23 2 -8.4760000000000002e-01 2.4801444726064233e+01 -1.5393443131694418e-01 2.7668147284326023e+00 5 -1 -2
2341 781 2 -8.4760000000000002e-01 2.2090569252020309e+01 2.2177924408327172e+00 -1.8950005791859925e-01 -5 2 1
3422 1141 1 4.2380000000000001e-01 2.1946391295489519e+01 4.9730883361834461e+00 4.3840534534614370e+00 0 -3 -4
3421 1141 2 -8.4760000000000002e-01 2.1200089296438364e+01 4.3149141184150519e+00 4.2857099479417142e+00 0 -3 -4
4166 1389 1 4.2380000000000001e-01 2.6087998482567045e+01 5.0244054838377137e+00 2.3356231738100846e+00 -1 3 3
914 305 1 4.2380000000000001e-01 2.0644013851249856e+01 8.3591898722187352e-01 1.7550175643502499e+01 0 2 -2
68 23 1 4.2380000000000001e-01 2.5457328144025979e+01 -4.3453475340444525e-02 2.0201940612634073e+00 5 -1 -2
69 23 1 4.2380000000000001e-01 2.4516431374554379e+01 -1.1108259904806852e+00 2.8211972292591421e+00 5 -1 -2
2387 796 1 4.2380000000000001e-01 -9.1842479080160422e-01 1.6686045657487522e+01 -7.3937586495181495e-01 1 -1 -1
2955 985 1 4.2380000000000001e-01 2.8484577275713491e+01 3.9990641914265632e+00 7.8341914469293172e-01 2 2 1
2954 985 1 4.2380000000000001e-01 2.7909697651801114e+01 3.0416964189950075e+00 -4.0785668189527269e-01 2 2 1
2953 985 2 -8.4760000000000002e-01 2.7664017844451866e+01 3.7193573344982642e+00 2.8514415834403772e-01 2 2 1
2531 844 1 4.2380000000000001e-01 2.8473380332682158e+01 3.2460159523134893e+00 4.7908224297985917e+00 0 4 1
2535 845 1 4.2380000000000001e-01 2.9427625231731671e+01 1.1384123388789096e+00 -9.8037408890784783e-01 4 6 0
3474 1158 1 4.2380000000000001e-01 3.1000855519857463e+01 1.4937746442382740e+00 4.6122437849999569e+00 4 -2 2
37 13 2 -8.4760000000000002e-01 2.9839126655498358e+01 2.0379774243915749e+00 2.8789407464033614e+00 0 4 -5
38 13 1 4.2380000000000001e-01 2.9988099450347558e+01 1.4489775823499387e+00 2.0847633645473187e+00 0 4 -5
649 217 2 -8.4760000000000002e-01 2.9135679066215825e+01 4.7338412335768938e+00 4.4489870649576027e+00 -2 1 0
2230 744 2 -8.4760000000000002e-01 6.8757371792215594e+00 -9.5849686990270766e-01 9.5015912377109544e+00 -5 4 0
4348 1450 2 -8.4760000000000002e-01 2.8868405796046037e+01 -3.2338993652143877e-01 5.3891839206114422e+00 5 -1 0
2533 845 2 -8.4760000000000002e-01 2.8708860127696568e+01 1.7973667531951993e+00 -1.2017048077873800e+00 4 6 0
2985 995 1 4.2380000000000001e-01 2.7662547593508194e+01 -9.3923913818635185e-02 8.6156671239185822e-01 0 -3 1
2196 732 1 4.2380000000000001e-01 2.8659765725092210e+01 -1.4459816245946191e+00 8.7708978983597259e+00 -2 -3 1
4350 1450 1 4.2380000000000001e-01 2.8547670944332069e+01 -1.2680103998197110e+00 5.4573962219764338e+00 5 -1 0
1684 562 2 -8.4760000000000002e-01 1.6649503228132328e+01 -1.3796076248268334e+00 9.2848315805729822e+00 -4 0 -2
3332 1111 1 4.2380000000000001e-01 3.5041591058486603e+01 -7.2962706139329903e-01 8.1557457841018426e+00 1 0 1
2899 967 2 -8.4760000000000002e-01 3.3880726148051707e+01 -2.6489016376592955e-01 4.3057885023960489e+00 -5 -1 2
2380 794 2 -8.4760000000000002e-01 3.2284000220673903e+01 4.8967612460677614e+00 2.2505235955962766e-02 1 2 -1
2381 794 1 4.2380000000000001e-01 3.3215379486560920e+01 4.9159428985677582e+00 3.8581830219787916e-01 1 2 -1
2901 967 1 4.2380000000000001e-01 3.2969087650589714e+01 1.2668821154125243e-01 4.1816368826370258e+00 -5 -1 2
3295 1099 2 -8.4760000000000002e-01 3.6504051147346544e+01 1.5712969701542865e+00 1.6677956216530911e+00 2 5 2
3297 1099 1 4.2380000000000001e-01 3.6919623487705948e+01 6.6654094856779267e-01 1.7602491400059552e+00 2 5 2
2777 926 1 4.2380000000000001e-01 3.5877536031059677e+01 1.9571527233086381e+00 5.2167884074263604e+00 2 1 0
2776 926 2 -8.4760000000000002e-01 3.5038468878336644e+01 2.0826227346341581e+00 4.6875851697914657e+00 2 1 0
3296 1099 1 4.2380000000000001e-01 3.5961847514732426e+01 1.7739085933951313e+00 2.4831454102932842e+00 2 5 2
39 13 1 4.2380000000000001e-01 2.8949677356760649e+01 2.4876408356764390e+00 2.7982303346407384e+00 0 4 -5
2900 967 1 4.2380000000000001e-01 3.4511558568096305e+01 4.4899681818986847e-01 4.6095130671090185e+00 -5 -1 2
2378 793 1 4.2380000000000001e-01 3.7162710221360655e+01 6.9815422332900674e+00 8.6059932497203073e-01 1 1 1
2377 793 2 -8.4760000000000002e-01 -1.3146785917875445e+00 6.5309559504758816e+00 9.4169307628510834e-02 2 1 1
2379 793 1 4.2380000000000001e-01 3.7059604913804890e+01 6.6217114186950550e+00 -7.2876178570280681e-01 1 1 1
516 172 1 4.2380000000000001e-01 -5.4056315457636583e-01 5.1181690837636280e+00 8.0500789041014498e-01 -1 2 2
1875 625 1 4.2380000000000001e-01 1.3293156305751830e-01 1.0732708962295245e+01 4.9857869243176767e-01 1 -2 -1
1873 625 2 -8.4760000000000002e-01 -6.7479834650610027e-02 1.0669872453085823e+01 1.4761872421951363e+00 1 -2 -1
3541 1181 2 -8.4760000000000002e-01 3.3125862576544201e+00 8.5419352078115782e+00 -1.6212233513714533e+00 1 0 0
3542 1181 1 4.2380000000000001e-01 3.7027918270622049e+00 8.2036752259843535e+00 -7.6498016297584781e-01 1 0 0
1778 593 1 4.2380000000000001e-01 3.0253435088232346e+00 1.0316856887703024e+01 -3.9373801237903128e-01 3 3 6
1874 625 1 4.2380000000000001e-01 6.0000727648639085e-01 1.1209962322199507e+01 1.9886279359284722e+00 1 -2 -1
4359 1453 1 4.2380000000000001e-01 -1.3359998778437976e+00 9.3397108099669701e+00 1.9335943349411728e+00 -5 -3 7
1030 344 2 -8.4760000000000002e-01 5.4765494773757730e+00 6.1455756938713515e+00 4.2353046367471494e+00 0 -1 4
1334 445 1 4.2380000000000001e-01 5.7171733109076834e+00 7.5365997064356200e+00 6.5003886800555577e-01 5 1 -3
2808 936 1 4.2380000000000001e-01 4.4524943507362957e+00 1.1575230354884026e+01 2.1922266715624028e+00 0 -2 6
2806 936 2 -8.4760000000000002e-01 4.4005476048106473e+00 1.1170926240080307e+01 3.1052830016839259e+00 0 -2 6
2807 936 1 4.2380000000000001e-01 4.1545762693443100e+00 1.0204784685489591e+01 3.0284691019578487e+00 0 -2 6
1335 445 1 4.2380000000000001e-01 4.2724939726946873e+00 8.1869848975941899e+00 1.0451065775670023e+00 5 1 -3
1333 445 2 -8.4760000000000002e-01 4.7594963587418491e+00 7.6252056753569502e+00 3.7647778779587338e-01 5 1 -3
1110 370 1 4.2380000000000001e-01 7.4357298196739112e+00 8.8030736426553755e+00 1.6459267721063111e+00 0 -2 -1
1109 370 1 4.2380000000000001e-01 8.1987316716592744e+00 7.3891254231804098e+00 1.3547974688851068e+00 0 -2 -1
1108 370 2 -8.4760000000000002e-01 7.3721192401312567e+00 7.9226497208268913e+00 1.1762041453708965e+00 0 -2 -1
480 160 1 4.2380000000000001e-01 5.2111252355306519e+00 6.9854443963469581e+00 -1.2949838276557184e+00 0 2 2
4468 1490 2 -8.4760000000000002e-01 8.0641995585614836e+00 1.0626986662916419e+01 -8.1420948251185721e-01 -2 -3 3
4106 1369 1 4.2380000000000001e-01 1.7647486504640618e+01 -8.8665941163852591e-01 1.1936340323973729e+01 -3 4 -2
1777 593 2 -8.4760000000000002e-01 3.3278064565503263e+00 1.0910819382648965e+01 3.5161870585982502e-01 3 3 6
4470 1490 1 4.2380000000000001e-01 7.2351419529332510e+00 1.0924405365470571e+01 -3.4088382993688660e-01 -2 -3 3
999 333 1 4.2380000000000001e-01 8.5567289604209513e+00 6.0952835973287440e+00 4.7800472582095672e+00 1 -4 -1
274 92 2 -8.4760000000000002e-01 1.3517915854443597e+01 7.1025131608495116e+00 2.2432363135905145e+00 0 1 2
275 92 1 4.2380000000000001e-01 1.2854570653175767e+01 7.7852943974059929e+00 1.9372707303165173e+00 0 1 2
1474 492 2 -8.4760000000000002e-01 9.7607957199017434e+00 6.0950821210896606e+00 1.7955683790755543e+00 1 -2 -2
1475 492 1 4.2380000000000001e-01 1.0308448977397189e+01 6.6685822075824994e+00 2.4046705410036830e+00 1 -2 -2
1476 492 1 4.2380000000000001e-01 9.1851070472391072e+00 5.4853153507576797e+00 2.3401770495671697e+00 1 -2 -2
4496 1499 1 4.2380000000000001e-01 1.4178304877254588e+01 1.1055321164774657e+01 1.6312294268264238e+00 1 2 -2
4495 1499 2 -8.4760000000000002e-01 1.3291548196354462e+01 1.0973644381191747e+01 2.0860073983246208e+00 1 2 -2
4497 1499 1 4.2380000000000001e-01 1.3370311719288674e+01 1.1294046112488113e+01 3.0299197487387639e+00 1 2 -2
3455 1152 1 4.2380000000000001e-01 1.4976269386048479e+01 6.8014895834270082e+00 8.6129720123937981e-01 1 8 4
2121 707 1 4.2380000000000001e-01 3.2509401094120150e+01 1.5884735563512209e+01 1.2407002645366262e+01 1 -2 0
4021 1341 2 -8.4760000000000002e-01 1.1331062897258754e+01 8.7627996786280260e+00 2.3095432301446124e+00 0 2 3
4023 1341 1 4.2380000000000001e-01 1.1945485486526199e+01 9.5068538548606938e+00 2.5716503971298117e+00 0 2 3
4022 1341 1 4.2380000000000001e-01 1.0771323923658764e+01 9.0508047796688977e+00 1.5326408171727408e+00 0 2 3
3898 1300 2 -8.4760000000000002e-01 1.0673342718296908e+01 1.1274652569892702e+01 1.3190662436321356e+00 0 2 1
3900 1300 1 4.2380000000000001e-01 1.1645625973027594e+01 1.1255797924848615e+01 1.5517509214395515e+00 0 2 1
1325 442 1 4.2380000000000001e-01 9.8051821073148364e+00 9.7080009927305220e+00 -1.1192913368498829e+00 -3 -4 1
2645 882 1 4.2380000000000001e-01 1.9395166835418202e+01 1.1033826981819910e+01 1.9213370689195308e+00 5 3 -1
3454 1152 2 -8.4760000000000002e-01 1.5713895777891523e+01 6.5853730735348339e+00 2.2173994392664209e-01 1 8 4
3456 1152 1 4.2380000000000001e-01 1.5483105082601764e+01 6.9384841613960813e+00 -6.8483601544254324e-01 1 8 4
17 6 1 4.2380000000000001e-01 1.7554324636666717e+01 7.6597848171911647e+00 -1.7835869237824009e-01 -4 3 4
4083 1361 1 4.2380000000000001e-01 1.5745749175564811e+01 1.1290030916890336e+01 -4.3746272503278227e-01 2 3 -1
4081 1361 2 -8.4760000000000002e-01 1.5220022189628384e+01 1.1400241824555474e+01 4.0592115781562832e-01 2 3 -1
16 6 2 -8.4760000000000002e-01 1.7470521449234781e+01 8.2540812040601796e+00 -9.7812143453792522e-01 -4 3 4
2644 882 2 -8.4760000000000002e-01 2.0148523234751821e+01 1.0381906317194940e+01 2.0066977824263681e+00 5 3 -1
252 84 1 4.2380000000000001e-01 1.9727252024416416e+01 6.1545515146689551e+00 1.5004775161946009e+00 -2 1 -1
1936 646 2 -8.4760000000000002e-01 1.9768887290815808e+01 7.8207147572186440e+00 1.7092651605384956e+00 3 -3 -1
1596 532 1 4.2380000000000001e-01 1.6361668772719668e+01 7.7740240121466293e+00 1.3297305229087355e+00 -1 -4 3
1938 646 1 4.2380000000000001e-01 2.0269862594083634e+01 8.6119580672803195e+00 1.3588519651777062e+00 3 -3 -1
1594 532 2 -8.4760000000000002e-01 1.6789474261210625e+01 8.1716765889308114e+00 2.1413257166856789e+00 -1 -4 3
1595 532 1 4.2380000000000001e-01 1.6865710399789084e+01 7.4740299012035969e+00 2.8535817520473286e+00 -1 -4 3
1937 646 1 4.2380000000000001e-01 1.9033589684914027e+01 8.1317083175646516e+00 2.3113049232982643e+00 3 -3 -1
488 163 1 4.2380000000000001e-01 1.7907038727399211e+01 1.0276953646216237e+01 5.0843139159861197e+00 3 -2 1
2748 916 1 4.2380000000000001e-01 2.6224287082351303e+01 1.0905923037013419e+01 -8.3454330904587370e-01 4 3 2
458 153 1 4.2380000000000001e-01 3.6284489046980948e+00 1.6430699898692552e+01 3.8956829518544200e+00 1 -2 1
4167 1389 1 4.2380000000000001e-01 2.4541228630402667e+01 4.6669986542155444e+00 2.7176448412689336e+00 -1 3 3
2646 882 1 4.2380000000000001e-01 2.0946940537321233e+01 1.0843892629675576e+01 2.3926135214777693e+00 5 3 -1
4165 1389 2 -8.4760000000000002e-01 2.5129667457665359e+01 5.2251177865546889e+00 2.1327734572515542e+00 -1 3 3
3029 1010 1 4.2380000000000001e-01 2.3964081255939764e+01 6.2377972099578747e+00 4.5483463817817729e+00 2 2 3
3028 1010 2 -8.4760000000000002e-01 2.3749448723451682e+01 5.2829834397693238e+00 4.7535170391368551e+00 2 2 3
3122 1041 1 4.2380000000000001e-01 2.4022309023804802e+01 9.9890309232785501e+00 1.4252234378155864e+00 1 0 1
3123 1041 1 4.2380000000000001e-01 2.2405641076556819e+01 9.8094507499607424e+00 1.2826982048653504e+00 1 0 1
3121 1041 2 -8.4760000000000002e-01 2.3274601321511945e+01 9.8026042369938473e+00 7.8803373430781498e-01 1 0 1
3187 1063 2 -8.4760000000000002e-01 2.5444996649955279e+01 8.0338263982793876e+00 1.1135170571715807e+00 -2 0 8
3189 1063 1 4.2380000000000001e-01 2.5020448639256536e+01 7.2012638285892194e+00 1.4690883248259308e+00 -2 0 8
3188 1063 1 4.2380000000000001e-01 2.4759406354534452e+01 8.5765721395522281e+00 6.2851640828568645e-01 -2 0 8
1407 469 1 4.2380000000000001e-01 2.5740484404939728e+01 1.1721864632641317e+01 4.3444308427267035e+00 -4 0 4
1654 552 2 -8.4760000000000002e-01 2.2267129605102323e+01 1.1265791501267080e+01 3.5477263134821682e+00 -2 0 -1
1640 547 1 4.2380000000000001e-01 2.2063798074021630e+01 9.1810389977606732e+00 4.3800431016806245e+00 -1 -1 -3
1641 547 1 4.2380000000000001e-01 2.1729944762029287e+01 8.4174627446897645e+00 2.9758812970534132e+00 -1 -1 -3
1639 547 2 -8.4760000000000002e-01 2.2112452362570970e+01 8.3089216178821506e+00 3.8933442971566867e+00 -1 -1 -3
1405 469 2 -8.4760000000000002e-01 2.6390029447847485e+01 1.1161635674228112e+01 3.8305571312413447e+00 -4 0 4
4202 1401 1 4.2380000000000001e-01 2.5480497381520369e+01 5.9603321261050031e+00 -9.2685004172129437e-02 0 -4 -1
3279 1093 1 4.2380000000000001e-01 4.1454185449036283e+00 -1.6416569583005924e+00 2.4451460991984817e+00 3 3 -2
650 217 1 4.2380000000000001e-01 2.9437570257973363e+01 4.8837246457412888e+00 3.5075899197719762e+00 -2 1 0
82 28 2 -8.4760000000000002e-01 3.0087647019135442e+01 5.6399549378043705e+00 2.1462876113076907e+00 1 0 1
84 28 1 4.2380000000000001e-01 2.9482604266364859e+01 6.3348683687591230e+00 1.7578928974405472e+00 1 0 1
3974 1325 1 4.2380000000000001e-01 2.8896310537067951e+01 7.8437677384986308e+00 -4.3119496949370117e-01 -3 -2 -2
3973 1325 2 -8.4760000000000002e-01 2.8569694540583246e+01 8.6823685605258252e+00 4.5827594743412803e-03 -3 -2 -2
83 28 1 4.2380000000000001e-01 3.0881404762296111e+01 5.5184724708182271e+00 1.5504501240239996e+00 1 0 1
3142 1048 2 -8.4760000000000002e-01 3.1221152110186605e+01 9.3984069232901355e+00 1.2602531604543339e+00 2 5 -2
3144 1048 1 4.2380000000000001e-01 3.0375077558554626e+01 9.7022813350162913e+00 1.6980325317940288e+00 2 5 -2
3975 1325 1 4.2380000000000001e-01 2.7771877236207711e+01 8.4749406869551045e+00 5.7052750446406497e-01 -3 -2 -2
3143 1048 1 4.2380000000000001e-01 3.1223117763158829e+01 9.6865963713699959e+00 3.0276931592748602e-01 2 5 -2
3591 1197 1 4.2380000000000001e-01 2.7694637751537762e+01 6.7876481680611391e+00 3.1225014827585209e+00 -2 1 0
3590 1197 1 4.2380000000000001e-01 2.6797860503741720e+01 7.2077600727367166e+00 1.8242432637758288e+00 -2 1 0
1406 469 1 4.2380000000000001e-01 2.6403692837736397e+01 1.0235983113161053e+01 4.2084620569339766e+00 -4 0 4
3589 1197 2 -8.4760000000000002e-01 2.7728160999240064e+01 7.0693013539873224e+00 2.1636586280111665e+00 -2 1 0
674 225 1 4.2380000000000001e-01 3.2111577190740576e+01 7.8233232221735634e+00 1.8487803583884466e+00 0 0 1
4201 1401 2 -8.4760000000000002e-01 2.5683109213581492e+01 5.8280053947685175e+00 -1.0628755816072042e+00 0 -4 -1
4203 1401 1 4.2380000000000001e-01 2.5785758395725914e+01 4.8514686113769629e+00 -1.2517425481762512e+00 0 -4 -1
2382 794 1 4.2380000000000001e-01 3.1862138175300284e+01 4.0150319067175868e+00 2.3325910907123215e-01 1 2 -1
3155 1052 1 4.2380000000000001e-01 3.4474749661334286e+01 7.8274443683718236e+00 -5.8881615468316628e-01 0 1 1
3154 1052 2 -8.4760000000000002e-01 3.4235912070730208e+01 8.0892077931604316e+00 -1.5238392236316174e+00 0 1 1
2468 823 1 4.2380000000000001e-01 3.5627761959548451e+01 5.5507227173061189e+00 2.4151821410167695e-01 -2 2 -2
2467 823 2 -8.4760000000000002e-01 3.5593021014439657e+01 4.5738578935669514e+00 3.0900747638026305e-02 -2 2 -2
2469 823 1 4.2380000000000001e-01 3.6394176328997062e+01 4.3211449949729195e+00 -5.1142591083557032e-01 -2 2 -2
614 205 1 4.2380000000000001e-01 3.4270017890367299e+01 7.3808282306680706e+00 1.6570593071026845e+00 2 3 -2
2666 889 1 4.2380000000000001e-01 2.0263453248157980e+01 1.7082154863598625e+01 1.2250042968009387e+00 -2 4 3
615 205 1 4.2380000000000001e-01 3.5728269173713855e+01 8.0998450385331253e+00 1.5064111157955198e+00 2 3 -2
613 205 2 -8.4760000000000002e-01 3.4948983827229981e+01 7.7216296518361194e+00 1.0069123563986513e+00 2 3 -2
4358 1453 1 4.2380000000000001e-01 -1.2676538066708607e+00 8.3063525722270857e+00 3.1960034499251124e+00 -5 -3 7
4357 1453 2 -8.4760000000000002e-01 -1.6769837520541107e+00 8.4737456403977554e+00 2.2991980197641348e+00 -5 -3 7
673 225 2 -8.4760000000000002e-01 3.2468426768373362e+01 7.2905838198494184e+00 2.6160347629928298e+00 0 0 1
675 225 1 4.2380000000000001e-01 3.2082670629780068e+01 7.6376365256291336e+00 3.4707736877079283e+00 0 0 1
264 88 1 4.2380000000000001e-01 3.1810778170761079e+01 1.0750279210507822e+01 2.5513828356731141e+00 -2 0 -3
262 88 2 -8.4760000000000002e-01 3.2064353401627258e+01 1.1667719797166219e+01 2.8577071149606610e+00 -2 0 -3
4341 1447 1 4.2380000000000001e-01 -9.3185542448494896e-01 1.4668948963837348e+01 -2.8529363185313850e-02 5 4 -1
1367 456 1 4.2380000000000001e-01 1.2431998502369872e+00 1.2379693424456772e+01 4.8587044628375686e+00 0 -3 0
2119 707 2 -8.4760000000000002e-01 3.1993732634343854e+01 1.6680271916227174e+01 1.2089134861544315e+01 1 -2 0
4340 1447 1 4.2380000000000001e-01 6.3860179114532789e-01 1.5100636444850096e+01 8.7605469401129232e-02 5 4 -1
4339 1447 2 -8.4760000000000002e-01 -2.5378416696777650e-02 1.4377256780661558e+01 2.7650664307037465e-01 5 4 -1
1350 450 1 4.2380000000000001e-01 3.3300274378932100e+00 1.5371123968214647e+01 2.4254677589112230e+00 3 4 -1
3212 1071 1 4.2380000000000001e-01 8.1194591995487393e+00 1.4092822731140707e+01 -7.9303197831221339e-01 2 -3 -1
2594 865 1 4.2380000000000001e-01 -5.8250469429883478e-01 1.4539414016991177e+01 2.2115980641834385e+00 -3 -2 -3
3281 1094 1 4.2380000000000001e-01 1.4011484056707375e+00 1.7630986748230210e+01 2.4490036534657413e+00 -2 -3 3
1348 450 2 -8.4760000000000002e-01 3.5786989337156632e+00 1.4446705938115596e+01 2.1365986989432684e+00 3 4 -1
457 153 2 -8.4760000000000002e-01 3.2705332804627627e+00 1.7274417928507692e+01 3.4958480332873627e+00 1 -2 1
1349 450 1 4.2380000000000001e-01 3.0812448070009957e+00 1.4213449708686055e+01 1.3011571349226827e+00 3 4 -1
1779 593 1 4.2380000000000001e-01 4.2149753346722116e+00 1.1310049302200918e+01 1.2057902966278666e-01 3 3 6
3211 1071 2 -8.4760000000000002e-01 8.5733098522429554e+00 1.3359286380880189e+01 -1.2987745949640157e+00 2 -3 -1
1487 496 1 4.2380000000000001e-01 2.2309428563194889e+01 5.6265609523342199e+00 1.7709044812311525e+01 1 3 1
1366 456 2 -8.4760000000000002e-01 3.7040390590187000e-01 1.1892392884325167e+01 4.8831369289418891e+00 0 -3 0
1368 456 1 4.2380000000000001e-01 -3.6143828340852591e-01 1.2504270807178923e+01 4.5833968097662368e+00 0 -3 0
3585 1195 1 4.2380000000000001e-01 3.6784339149168062e+01 1.4485477941300914e+01 4.4454967443935081e+00 -1 -3 4
2595 865 1 4.2380000000000001e-01 -9.0871978535982212e-01 1.5857608229439808e+01 3.1183090184546645e+00 -3 -2 -3
2593 865 2 -8.4760000000000002e-01 -1.1007961854501960e+00 1.4884205372588578e+01 2.9941099794085515e+00 -3 -2 -3
3280 1094 2 -8.4760000000000002e-01 5.0671841729307854e-01 1.7675023928821414e+01 2.8938488751898497e+00 -2 -3 3
3723 1241 1 4.2380000000000001e-01 3.0893233576164816e+00 1.5457950163459863e+01 -1.2624669126391488e+00 3 5 3