LAMMPS data file via write_data, version 7 Aug 2019, timestep = 2000178

4500 atoms
2 atom types
3000 bonds
1 bond types
1500 angles
1 angle types

-5.4683109112722406e-01 3.6077831091134549e+01 xlo xhi
-5.6880282461861142e-01 3.6125802824624145e+01 ylo yhi
-5.8964563243315382e-01 3.6093645632434111e+01 zlo zhi

Masses

1 1.00794
2 15.9994

Pair Coeffs # lj/cut/coul/long/gpu

1 0 0
2 0.155394 3.16556

Bond Coeffs # harmonic

1 5000 1

Angle Coeffs # harmonic

1 500 109.47

Atoms # full

1683 561 1 4.2380000000000001e-01 8.8732574671998088e-01 4.3088285623270464e+00 5.5190515254215375e+00 1 1 5
3366 1122 1 4.2380000000000001e-01 4.6279572509064359e-01 6.5237849731433339e-01 2.3034816548138628e+00 0 -1 2
3667 1223 2 -8.4760000000000002e-01 5.4959693324668080e-01 4.1779476689609147e+00 3.3120357028267340e+00 -3 3 2
3669 1223 1 4.2380000000000001e-01 1.9918269343076733e-01 4.7451050381145672e+00 2.5665525107897196e+00 -3 3 2
154 52 2 -8.4760000000000002e-01 2.1514639631049435e+00 1.5095148363266069e+00 4.1646512637141697e+00 -1 1 1
3126 1042 1 4.2380000000000001e-01 8.9175881685577352e-01 1.9524242030304118e+00 2.7754764108766350e-01 1 -1 -3
3943 1315 2 -8.4760000000000002e-01 5.0732280247194605e+00 4.0066371764520481e+00 3.7872874706772013e+00 3 -1 0
3124 1042 2 -8.4760000000000002e-01 1.1072025976733055e+00 2.8792011891528584e+00 -3.0465498904887145e-02 1 -1 -3
3668 1223 1 4.2380000000000001e-01 1.5303305319756162e+00 4.0289555936208545e+00 3.1848911295463695e+00 -3 3 2
3719 1240 1 4.2380000000000001e-01 9.9156773798876330e-02 4.5394472058580133e+00 2.9620772634042181e-01 -2 -1 1
53 18 1 4.2380000000000001e-01 -3.9800796477469952e-01 2.6310482046084025e+00 3.4422068515599449e+00 0 -1 2
2460 820 1 4.2380000000000001e-01 4.5846238031154085e+00 6.1616959194201675e+00 3.5009150698567231e+00 0 3 -1
2020 674 2 -8.4760000000000002e-01 2.9242263492996554e+00 5.7574378406524724e+00 9.9547762898400949e-01 -1 4 5
2022 674 1 4.2380000000000001e-01 2.7037580674125681e+00 4.8148824920657072e+00 1.2468444848892111e+00 -1 4 5
677 226 1 4.2380000000000001e-01 2.8749166255898682e+00 2.4157628759838472e+00 2.7828124007077992e+00 -2 0 1
3365 1122 1 4.2380000000000001e-01 1.8040895243758044e+00 3.4422691203210953e-02 1.6061802492984807e+00 0 -1 2
156 52 1 4.2380000000000001e-01 1.1628287190911524e+00 1.6586106205159346e+00 4.1406863047271276e+00 -1 1 1
3944 1315 1 4.2380000000000001e-01 4.3846157819204050e+00 3.7053749811833319e+00 3.1275471808403110e+00 3 -1 0
678 226 1 4.2380000000000001e-01 2.4620719145951133e+00 2.7820928907572449e+00 1.2457604148497134e+00 -2 0 1
1937 646 1 4.2380000000000001e-01 3.6209174135235562e+00 -4.3206067008141602e-01 4.8201447695227317e+00 1 -3 3
3364 1122 2 -8.4760000000000002e-01 9.3649041718724502e-01 5.0175053192398789e-01 1.4356524044868730e+00 0 -1 2
676 226 2 -8.4760000000000002e-01 3.0885946437916099e+00 2.9946336860088740e+00 1.9957592312410908e+00 -2 0 1
2875 959 2 -8.4760000000000002e-01 7.6512087167141303e+00 -2.8245031708307450e-01 2.4828081065564378e+00 -1 -1 1
3945 1315 1 4.2380000000000001e-01 5.9746259145009102e+00 3.6826101742410611e+00 3.4997257425526271e+00 3 -1 0
1114 372 2 -8.4760000000000002e-01 7.4914693866934527e+00 2.4244559883147563e+00 4.1173477362677460e+00 -3 2 -1
1115 372 1 4.2380000000000001e-01 8.2491878371135563e+00 2.6227377830537280e+00 3.4954554883825057e+00 -3 2 -1
1116 372 1 4.2380000000000001e-01 7.1682680227284896e+00 1.4908603834375862e+00 3.9619668275558002e+00 -3 2 -1
4490 1497 1 4.2380000000000001e-01 8.8105427244287249e+00 1.8210138183838716e+00 8.4901912301611837e-01 4 2 2
4489 1497 2 -8.4760000000000002e-01 8.8942855492244135e+00 2.7535162034977980e+00 1.2006285572389599e+00 4 2 2
4491 1497 1 4.2380000000000001e-01 8.0238487965076430e+00 3.2324541451639877e+00 1.0859071231404407e+00 4 2 2
2825 942 1 4.2380000000000001e-01 6.0746992748907171e+00 4.2661869713471861e+00 5.3726118711788229e-02 -2 6 2
1325 442 1 4.2380000000000001e-01 1.1616972723017584e+01 4.4552630447972206e+00 4.8200396367032399e+00 0 2 1
8 3 1 4.2380000000000001e-01 9.7127611750497707e+00 4.4317597463354916e+00 4.6648296088315622e-01 -1 0 1
496 166 2 -8.4760000000000002e-01 8.5914747362310155e+00 3.2406541672170242e-01 1.0041154746740610e-02 -4 -2 2
2824 942 2 -8.4760000000000002e-01 6.0763928804070169e+00 4.0917530968992937e+00 1.0384962146298951e+00 -2 6 2
2826 942 1 4.2380000000000001e-01 5.1500674576712555e+00 3.8629175516469560e+00 1.3380919309539110e+00 -2 6 2
3776 1259 1 4.2380000000000001e-01 9.8816341264227709e+00 8.9418994537960450e-01 3.0895041328750410e+00 -1 -2 0
2997 999 1 4.2380000000000001e-01 3.5106787597131380e+01 5.7474173849085783e+00 1.7108420569468863e-01 1 -1 1
3775 1259 2 -8.4760000000000002e-01 1.0748730901253714e+01 1.1166636987917749e+00 3.5354317986594488e+00 -1 -2 0
2025 675 1 4.2380000000000001e-01 2.5767964609474458e+01 9.8960625315911321e-02 1.6122393388876262e+01 2 4 0
3748 1250 2 -8.4760000000000002e-01 1.3655510800981910e+01 4.0095181835498819e+00 2.9633658773162126e+00 0 2 4
3749 1250 1 4.2380000000000001e-01 1.3008821985115549e+01 3.7512034025306118e+00 3.6811889120921188e+00 0 2 4
3750 1250 1 4.2380000000000001e-01 1.3230944461047933e+01 4.6839481539317189e+00 2.3591389979685577e+00 0 2 4
3538 1180 2 -8.4760000000000002e-01 1.6285508465070460e+01 3.2468376663356722e+00 2.8944449473109852e+00 -1 2 -3
3540 1180 1 4.2380000000000001e-01 1.6134897909306090e+01 2.2726484930848643e+00 2.7257027477155353e+00 -1 2 -3
3539 1180 1 4.2380000000000001e-01 1.5404680395894669e+01 3.7192126376726593e+00 2.9291770683053100e+00 -1 2 -3
430 144 2 -8.4760000000000002e-01 1.3220663683810709e+01 2.0955779602625211e+00 8.5580222358511104e-01 -1 -3 -3
432 144 1 4.2380000000000001e-01 1.3055185949655733e+01 2.7114720796528227e+00 8.5416070472503436e-02 -1 -3 -3
431 144 1 4.2380000000000001e-01 1.3519228232310514e+01 2.6265996147328918e+00 1.6489469393183409e+00 -1 -3 -3
3777 1259 1 4.2380000000000001e-01 1.1088293357305048e+01 1.9903929482918605e+00 3.1868672394047066e+00 -1 -2 0
4342 1448 2 -8.4760000000000002e-01 1.7399958323134332e+01 5.5385199354917365e+00 4.6346470581972108e+00 0 1 4
3259 1087 2 -8.4760000000000002e-01 1.5080269624717923e+01 4.5732682075580633e-01 5.3564196296371511e+00 -3 1 1
1998 666 1 4.2380000000000001e-01 1.7314822285284976e+01 4.3013825714680189e+00 1.6980723548231533e+00 -1 -1 0
4344 1448 1 4.2380000000000001e-01 1.7189507213707422e+01 4.7867291362227880e+00 4.0095683983405213e+00 0 1 4
1324 442 2 -8.4760000000000002e-01 1.2089829248102463e+01 3.5766608208791144e+00 4.8883669569452088e+00 0 2 1
2637 879 1 4.2380000000000001e-01 3.1022504492321936e+01 1.7400560550643732e+01 -5.6127623156105821e-01 1 0 2
1880 627 1 4.2380000000000001e-01 1.1846395066672699e+01 2.5342505533627380e-02 2.2672060160387617e+00 1 1 -1
3029 1010 1 4.2380000000000001e-01 1.5688044144363737e+01 -1.5816999809538584e-01 1.8985441109721179e+00 1 4 1
3030 1010 1 4.2380000000000001e-01 1.5578823890119860e+01 2.7486082616576557e-01 3.4694422538647594e+00 1 4 1
1409 470 1 4.2380000000000001e-01 -1.1148026148914442e-01 -7.7036172100788891e-02 1.2311531350633601e+01 4 0 -1
1881 627 1 4.2380000000000001e-01 1.2625325029688407e+01 4.2020260533605980e-01 8.8716273226893283e-01 1 1 -1
3028 1010 2 -8.4760000000000002e-01 1.5896593362920242e+01 5.5822358750266665e-01 2.5644944668722522e+00 1 4 1
1932 644 1 4.2380000000000001e-01 1.9277790685121055e+01 1.3829980757041582e-01 2.9851644738921528e+00 -1 3 1
1930 644 2 -8.4760000000000002e-01 1.8910943819797200e+01 4.4978753440010033e-01 2.1084651730920596e+00 -1 3 1
3974 1325 1 4.2380000000000001e-01 2.3624164682882682e+01 3.6809477958029104e+00 3.1561921867813876e+00 0 1 0
1931 644 1 4.2380000000000001e-01 1.7917982743006014e+01 3.3070272454782668e-01 2.1013824208224938e+00 -1 3 1
3975 1325 1 4.2380000000000001e-01 2.2449403280478911e+01 2.7151799614196386e+00 3.7515049659610540e+00 0 1 0
1285 429 2 -8.4760000000000002e-01 2.2947567447751332e+01 5.1982988661612231e+00 6.2428344764468457e-02 -2 0 2
1806 602 1 4.2380000000000001e-01 2.3348326062296149e+01 4.2041118025463078e+00 5.4011195180226359e+00 -1 -1 1
2563 855 2 -8.4760000000000002e-01 4.2561116779507442e+00 1.7630638612574739e+01 1.6436889391988007e+01 1 1 0
4395 1465 1 4.2380000000000001e-01 2.3200857627545602e+01 7.8391443724856824e-01 2.6253320757734886e+00 -1 2 1
601 201 2 -8.4760000000000002e-01 2.1489202423132223e+01 8.9803474986813869e-01 3.9695273381040908e+00 0 1 0
602 201 1 4.2380000000000001e-01 2.1796120512820586e+01 6.2204617063751821e-01 4.8804804064071625e+00 0 1 0
1287 429 1 4.2380000000000001e-01 2.3393013860384887e+01 5.2276385591415018e+00 9.5736899727628999e-01 -2 0 2
4394 1465 1 4.2380000000000001e-01 2.3899151946010701e+01 -3.3705516494213827e-01 1.6646142635944656e+00 -1 2 1
3973 1325 2 -8.4760000000000002e-01 2.3138756299062269e+01 3.4012133214747990e+00 3.9846433896033657e+00 0 1 0
2696 899 1 4.2380000000000001e-01 2.2036400354728851e+01 6.0550544090380001e+00 2.4027072580437925e+00 -4 3 -1
2695 899 2 -8.4760000000000002e-01 2.1489311318032986e+01 5.7526824427050096e+00 3.1833910866507948e+00 -4 3 -1
2697 899 1 4.2380000000000001e-01 2.1829664597258439e+01 4.8696895172648107e+00 3.5069434107062909e+00 -4 3 -1
1997 666 1 4.2380000000000001e-01 1.8725109569930513e+01 4.8824498338097655e+00 1.1144479072599336e+00 -1 -1 0
1996 666 2 -8.4760000000000002e-01 1.7750732091457945e+01 5.0730530915651961e+00 1.2347042882572359e+00 -1 -1 0
4025 1342 1 4.2380000000000001e-01 1.0552366423288305e+01 8.6632599657790923e+00 1.7694807381771788e+01 0 2 2
1376 459 1 4.2380000000000001e-01 1.9566115704941463e+01 1.1358425240768684e+00 3.0356182255977615e-01 1 -2 -3
4393 1465 2 -8.4760000000000002e-01 2.4018124795271913e+01 5.5777731276052900e-01 2.0951062358035770e+00 -1 2 1
2965 989 2 -8.4760000000000002e-01 2.8965645188979696e+01 3.3018946130657461e+00 5.4823392699966043e+00 0 0 2
1844 615 1 4.2380000000000001e-01 2.6841627459068626e+01 2.2900838896838867e+00 2.0567120434076327e+00 3 1 0
1843 615 2 -8.4760000000000002e-01 2.6362294026537992e+01 2.1796376642916586e+00 1.1859404045645294e+00 3 1 0
1845 615 1 4.2380000000000001e-01 2.5607562249735736e+01 1.5335259565122183e+00 1.3004922436037833e+00 3 1 0
1033 345 2 -8.4760000000000002e-01 2.7728732978788621e+01 1.8943802435140342e+00 3.4116090867923647e+00 5 -1 -2
1035 345 1 4.2380000000000001e-01 2.7788403237923102e+01 2.6580940368588029e+00 4.0545580834151860e+00 5 -1 -2
2132 711 1 4.2380000000000001e-01 2.8398733287322283e+01 6.0748371612042149e+00 3.9300229753114975e+00 -2 0 -1
983 328 1 4.2380000000000001e-01 2.5379243371775317e+01 3.8005335261440862e+00 1.6788657511654526e+00 0 0 2
982 328 2 -8.4760000000000002e-01 2.4899532231425752e+01 4.4210523989831465e+00 2.2993789536449678e+00 0 0 2
3630 1210 1 4.2380000000000001e-01 2.7125768287943689e+01 3.8329638470866376e+00 1.5161343284908513e-01 1 -2 2
1034 345 1 4.2380000000000001e-01 2.7965093098331465e+01 1.0437811507915500e+00 3.8815216312112710e+00 5 -1 -2
3628 1210 2 -8.4760000000000002e-01 2.7313039890155547e+01 4.8081720465153683e+00 3.2864438103265448e-02 1 -2 2
1315 439 2 -8.4760000000000002e-01 2.8851049416702381e+01 -2.2849288929399253e-01 5.1138333731656447e+00 3 2 1
3861 1287 1 4.2380000000000001e-01 3.2071031692818543e+01 1.8330371426471608e+00 4.3082573368335284e+00 -3 2 4
2943 981 1 4.2380000000000001e-01 3.1691448602821708e+01 4.6116089814872314e+00 1.3689924030955500e+00 0 -1 2
2942 981 1 4.2380000000000001e-01 3.0139135210257642e+01 4.3449462388531463e+00 1.8007112348723737e+00 0 -1 2
2049 683 1 4.2380000000000001e-01 3.0401215787307784e+01 4.0604843660886880e+00 4.6431784724173761e+00 3 0 -4
2048 683 1 4.2380000000000001e-01 3.1954977979383756e+01 3.7826287291234291e+00 5.0624470548772420e+00 3 0 -4
2047 683 2 -8.4760000000000002e-01 3.1347650593468270e+01 4.0657279727546412e+00 4.3200112886260191e+00 3 0 -4
4106 1369 1 4.2380000000000001e-01 3.2372471299419594e+01 1.0463055502506506e+00 1.3719116876853876e+00 0 1 1
3859 1287 2 -8.4760000000000002e-01 3.2736690781607834e+01 1.3280041435221599e+00 4.8578410079631356e+00 -3 2 4
1786 596 2 -8.4760000000000002e-01 1.3744885816654426e+01 4.4204414556375768e+00 -5.4505226184043576e-01 -1 -2 2
1319 440 1 4.2380000000000001e-01 3.4238456064781296e+01 5.0097242732863743e+00 2.5521794635047135e+00 1 2 1
1318 440 2 -8.4760000000000002e-01 3.3410735824912145e+01 4.5138710701534919e+00 2.2890963681266427e+00 1 2 1
1320 440 1 4.2380000000000001e-01 3.2744139525586014e+01 4.5594470276241497e+00 3.0332574662761354e+00 1 2 1
4469 1490 1 4.2380000000000001e-01 3.2016471174050750e+01 3.4764638104241818e+00 -1.6446566110902500e-01 0 0 2
4107 1369 1 4.2380000000000001e-01 3.1761535572607606e+01 2.4320287020393190e+00 1.9832186839986266e+00 0 1 1
4105 1369 2 -8.4760000000000002e-01 3.1952159149703277e+01 1.4691501755349425e+00 2.1748705699170752e+00 0 1 1
54 18 1 4.2380000000000001e-01 3.5029394437482161e+01 1.5569594012612864e+00 3.7251717300743605e+00 -1 -1 2
52 18 2 -8.4760000000000002e-01 3.6019860357258615e+01 1.6757517744396573e+00 3.6539798541185498e+00 -1 -1 2
2996 999 1 4.2380000000000001e-01 3.4586796544616419e+01 7.1681548563397008e+00 -4.4396183802098721e-01 1 -1 1
3860 1287 1 4.2380000000000001e-01 3.2659471245904015e+01 3.5072855449996343e-01 4.6599207809164751e+00 -3 2 4
1967 656 1 4.2380000000000001e-01 1.5347089919066653e+01 1.6426616557948261e+01 -1.6418454364000834e-01 0 0 2
4226 1409 1 4.2380000000000001e-01 3.3216896084344150e+01 2.3948614803163024e+00 6.1103378396963421e+00 0 -1 1
710 237 1 4.2380000000000001e-01 2.0459749093559950e+01 -2.0328046494155966e-01 1.2071298190072323e+01 -2 1 -1
2941 981 2 -8.4760000000000002e-01 3.0809959890990143e+01 4.2499308385531664e+00 1.0650690244655932e+00 0 -1 2
2610 870 1 4.2380000000000001e-01 1.7676299105120235e+00 7.1909701514721753e+00 5.9645340256647632e+00 0 2 -3
3718 1240 2 -8.4760000000000002e-01 -8.3779772754801751e-02 5.3504882108568337e+00 8.5204072550862842e-01 -2 -1 1
3720 1240 1 4.2380000000000001e-01 4.9261580113161951e-01 6.1056940142261293e+00 5.3957440033274051e-01 -2 -1 1
2608 870 2 -8.4760000000000002e-01 1.7528225660477941e+00 7.3273672299692203e+00 4.9738879354649708e+00 0 2 -3
2609 870 1 4.2380000000000001e-01 2.5920713443569485e+00 6.9586026380713344e+00 4.5740416764766998e+00 0 2 -3
1896 632 1 4.2380000000000001e-01 9.6023710103529059e-02 1.0188509327476671e+01 4.3065092724738108e-01 0 1 0
3038 1013 1 4.2380000000000001e-01 1.3178256507995139e+01 1.7380378824822113e+01 1.1811469666815812e+01 -3 0 0
2388 796 1 4.2380000000000001e-01 2.9869633027664135e+00 9.1055481170188397e+00 5.1192128670476107e+00 2 -3 1
4089 1363 1 4.2380000000000001e-01 9.6719446330041059e-01 8.2760631752938618e+00 3.1278045617133117e+00 -1 5 -2
4087 1363 2 -8.4760000000000002e-01 6.2752984957894520e-01 8.3081001966667340e+00 2.1876957828794255e+00 -1 5 -2
4088 1363 1 4.2380000000000001e-01 -2.9442714409271886e-01 7.9220996142370144e+00 2.1530288893526333e+00 -1 5 -2
2837 946 1 4.2380000000000001e-01 1.9654958597482430e+01 1.4694369780495517e+01 1.6741920287195512e+01 1 1 2
2458 820 2 -8.4760000000000002e-01 4.2242895051234060e+00 7.0915449074463970e+00 3.4251349067453196e+00 0 3 -1
2021 674 1 4.2380000000000001e-01 3.2572077523974219e+00 6.2480356644760704e+00 1.8008595242242578e+00 -1 4 5
199 67 2 -8.4760000000000002e-01 2.5832684198667750e+00 9.2738061771454063e+00 4.4959099528658730e-01 -4 -3 1
201 67 1 4.2380000000000001e-01 3.4295146943920138e+00 9.3279243982412527e+00 9.7981884622882909e-01 -4 -3 1
200 67 1 4.2380000000000001e-01 1.9141107305201959e+00 8.7200346681755452e+00 9.4534232482093006e-01 -4 -3 1
2459 820 1 4.2380000000000001e-01 4.9157822224907033e+00 7.7434358097232412e+00 3.7367084102110395e+00 0 3 -1
1527 509 1 4.2380000000000001e-01 3.7143754373597000e+00 1.3189622420544010e+01 5.2877614888746649e+00 2 -1 2
593 198 1 4.2380000000000001e-01 2.5002744040875950e+00 1.1542286854825809e+01 1.8520120540296996e+00 1 1 -1
1894 632 2 -8.4760000000000002e-01 -4.0813222206842503e-01 1.0418213579380300e+01 -4.0197494143126317e-01 0 1 0
1374 458 1 4.2380000000000001e-01 5.3786756504051576e+00 9.3782023575732119e+00 4.6691650631025468e+00 3 -1 2
1787 596 1 4.2380000000000001e-01 1.4661173774916842e+01 4.8200935157946061e+00 -5.1509979809726425e-01 -1 -2 2
3450 1150 1 4.2380000000000001e-01 9.2911806427062817e+00 5.2329681356889015e+00 5.0109831456332525e+00 3 2 0
4120 1374 2 -8.4760000000000002e-01 7.9928580949738741e+00 1.0832428055147545e+01 2.9501970497143888e+00 0 -3 2
1372 458 2 -8.4760000000000002e-01 6.2229334061282744e+00 8.9972463974441936e+00 4.2919322258661019e+00 3 -1 2
1373 458 1 4.2380000000000001e-01 6.7650720145045060e+00 9.7303998975468300e+00 3.8811108872396503e+00 3 -1 2
4121 1374 1 4.2380000000000001e-01 8.2539040878957355e+00 9.9685183584334904e+00 2.5192473251127181e+00 0 -3 2
4122 1374 1 4.2380000000000001e-01 8.6218389480627344e+00 1.1033738005389742e+01 3.7012364476001691e+00 0 -3 2
3448 1150 2 -8.4760000000000002e-01 1.0108770665294543e+01 5.8079879344921768e+00 5.0441676560114743e+00 3 2 0
3234 1078 1 4.2380000000000001e-01 1.0309783105825884e+01 8.3660259207864414e+00 1.4807685766369802e+00 1 -1 1
301 101 2 -8.4760000000000002e-01 1.0582796766522993e+01 1.1089113474939143e+01 5.5356428356503096e-01 1 -1 2
302 101 1 4.2380000000000001e-01 1.0179013835930945e+01 1.0190281303253073e+01 7.2462974518532342e-01 1 -1 2
3232 1078 2 -8.4760000000000002e-01 9.3856569589288590e+00 8.7038704946999808e+00 1.6598064277781939e+00 1 -1 1
3233 1078 1 4.2380000000000001e-01 8.7188981695117356e+00 8.0068758697826201e+00 1.3955454245503971e+00 1 -1 1
2364 788 1 4.2380000000000001e-01 1.0419476858839289e+01 1.0954262492403977e+01 5.5798319018433897e+00 -1 3 0
2363 788 1 4.2380000000000001e-01 1.0066693965256535e+01 9.6470057907755447e+00 4.6667105326554017e+00 -1 3 0
2362 788 2 -8.4760000000000002e-01 9.8369195491415002e+00 1.0603618006431432e+01 4.8464304055064957e+00 -1 3 0
2418 806 1 4.2380000000000001e-01 7.1685738126896341e+00 5.7166073756141476e+00 1.0781931616441125e+00 2 -1 -1
2995 999 2 -8.4760000000000002e-01 3.4332371606827913e+01 6.2208388700836821e+00 -2.4886262589507463e-01 1 -1 1
2416 806 2 -8.4760000000000002e-01 7.5255897349021410e+00 6.5813322690150242e+00 7.2464941553747608e-01 2 -1 -1
2445 815 1 4.2380000000000001e-01 1.2270109793389683e+01 1.0556582613582602e+01 3.4481805933180674e+00 3 0 -1
2444 815 1 4.2380000000000001e-01 1.3621009516131519e+01 1.0338773306277931e+01 4.3396943676729176e+00 3 0 -1
2443 815 2 -8.4760000000000002e-01 1.3213068133914252e+01 1.0223674964494645e+01 3.4338575608285860e+00 3 0 -1
2694 898 1 4.2380000000000001e-01 1.3238639944932824e+01 8.8930165734349576e+00 2.1587322438521843e+00 3 -2 -2
2692 898 2 -8.4760000000000002e-01 1.3430821848989309e+01 8.2352228673838521e+00 1.4303257092863388e+00 3 -2 -2
2693 898 1 4.2380000000000001e-01 1.4406446007678172e+01 8.0153200041373669e+00 1.4286334491543653e+00 3 -2 -2
4181 1394 1 4.2380000000000001e-01 1.6744795892664580e+01 7.5765363712738285e+00 2.5985763699502016e+00 -2 -2 1
4180 1394 2 -8.4760000000000002e-01 1.6032909008597137e+01 7.6746607088686591e+00 1.9030251696178353e+00 -2 -2 1
2405 802 1 4.2380000000000001e-01 1.6320781758036372e+01 8.8032439876172806e+00 5.8389897879840786e+00 -2 0 1
4182 1394 1 4.2380000000000001e-01 1.6091970114874108e+01 6.9143399612250649e+00 1.2560112058349235e+00 -2 -2 1
3641 1214 1 4.2380000000000001e-01 1.2641005110475282e+01 7.3209220931572032e+00 4.1925409575518491e-02 -2 -2 3
3922 1308 2 -8.4760000000000002e-01 1.6709311220226109e+01 1.1407695298362512e+01 -3.8451487913866211e-01 1 1 0
845 282 1 4.2380000000000001e-01 1.4865540482201613e+01 7.3111004848634735e+00 4.2530065550666469e+00 0 2 1
846 282 1 4.2380000000000001e-01 1.6078964784617536e+01 6.5651609928302603e+00 5.0519702895986374e+00 0 2 1
709 237 2 -8.4760000000000002e-01 2.1375135766638227e+01 -2.4001420689621067e-01 1.1670149177955807e+01 -2 1 -1
4468 1490 2 -8.4760000000000002e-01 3.2934101655224801e+01 3.5502051169307833e+00 -5.5526016542339385e-01 0 0 2
875 292 1 4.2380000000000001e-01 1.0572203461949979e+01 1.7671884706628703e+01 9.1945013278929633e+00 -3 1 0
2700 900 1 4.2380000000000001e-01 2.1573723353203665e+01 8.5903562052107088e+00 3.9823656552909803e-01 -2 -1 -2
2698 900 2 -8.4760000000000002e-01 2.1592926470606173e+01 9.0126746683490104e+00 -5.0811929466610517e-01 -2 -1 -2
1785 595 1 4.2380000000000001e-01 1.8524347635850017e+01 8.9172899683890279e+00 -5.3776195813046479e-01 -4 0 1
1783 595 2 -8.4760000000000002e-01 1.8961605431463227e+01 9.6944786340927589e+00 -8.5007603535995346e-02 -4 0 1
3982 1328 2 -8.4760000000000002e-01 1.9167274872971024e+01 9.5423786728701163e+00 5.2947688791703449e+00 -1 2 -2
1784 595 1 4.2380000000000001e-01 1.8310966297725205e+01 1.0451140730714600e+01 -1.9170114412482953e-02 -4 0 1
1899 633 1 4.2380000000000001e-01 2.1138296174594554e+01 9.8163206206918900e+00 5.7314225545897246e+00 -2 0 3
428 143 1 4.2380000000000001e-01 1.9974668950573385e+01 9.2933249233282407e+00 1.5892691697899788e+00 0 1 -2
427 143 2 -8.4760000000000002e-01 2.0514685617966290e+01 8.7260903266570562e+00 2.2112257322549023e+00 0 1 -2
2010 670 1 4.2380000000000001e-01 2.0072602532066000e+01 1.1213228126152844e+01 3.9847790322859185e+00 0 -2 0
429 143 1 4.2380000000000001e-01 1.9962006139353935e+01 8.4880702400104173e+00 3.0100337600152525e+00 0 1 -2
3983 1328 1 4.2380000000000001e-01 1.8218047470130369e+01 9.7836696181114302e+00 5.4971247117123365e+00 -1 2 -2
1718 573 1 4.2380000000000001e-01 2.3784698544001788e+01 7.7034791978584103e+00 3.6986414778671630e+00 1 0 1
1717 573 2 -8.4760000000000002e-01 2.4105415438353504e+01 7.0339803700151684e+00 4.3688013229569806e+00 1 0 1
1719 573 1 4.2380000000000001e-01 2.3323045360565672e+01 6.6598580387332085e+00 4.8669300675197107e+00 1 0 1
3600 1200 1 4.2380000000000001e-01 2.4630187350402117e+01 9.7782890182414253e+00 3.4793679920516576e+00 3 -4 2
3599 1200 1 4.2380000000000001e-01 2.3628538498435816e+01 1.0199843084331901e+01 2.2602868266855833e+00 3 -4 2
2009 670 1 4.2380000000000001e-01 2.1183022275254483e+01 1.1990450786534678e+01 3.0737027869335409e+00 0 -2 0
2352 784 1 4.2380000000000001e-01 1.8741254693493595e+01 6.4811909184146685e+00 4.4660603755785155e+00 -2 0 2
3984 1328 1 4.2380000000000001e-01 1.9278874054444966e+01 8.5502760464462444e+00 5.3537646662377094e+00 -1 2 -2
2351 784 1 4.2380000000000001e-01 2.0304231360697823e+01 6.6934059238692019e+00 4.0426992619373694e+00 -2 0 2
2350 784 2 -8.4760000000000002e-01 1.9547397071361235e+01 7.0614070079806552e+00 4.5830499736351351e+00 -2 0 2
4044 1348 1 4.2380000000000001e-01 2.5517708197288723e+01 7.9567538712644339e+00 5.3152817359865354e+00 -2 0 -1
4042 1348 2 -8.4760000000000002e-01 2.6089876028945735e+01 8.7178017210376471e+00 5.6212763912690002e+00 -2 0 -1
4043 1348 1 4.2380000000000001e-01 2.6857043612811637e+01 8.8328750049206164e+00 4.9900754244077179e+00 -2 0 -1
1929 643 1 4.2380000000000001e-01 2.5314119789546098e+01 1.0180939484628182e+01 5.2217967435973121e+00 -4 5 -2
2133 711 1 4.2380000000000001e-01 2.7838650530709216e+01 5.5746749741988761e+00 2.4797429096066481e+00 -2 0 -1
2131 711 2 -8.4760000000000002e-01 2.8644813441388902e+01 5.8948600758943810e+00 2.9775234017928724e+00 -2 0 -1
3598 1200 2 -8.4760000000000002e-01 2.4360284690793534e+01 9.5770814934526030e+00 2.5376296026030665e+00 3 -4 2
933 311 1 4.2380000000000001e-01 2.8235079920694137e+01 1.2298933522958549e+01 4.9655555671618030e+00 0 -2 2
1671 557 1 4.2380000000000001e-01 2.7132868764303335e+01 9.1339061349014212e+00 8.9852434165380646e-01 -1 0 -2
919 307 2 -8.4760000000000002e-01 2.7942814869749526e+01 8.6937319698032756e+00 3.4156558537112813e+00 0 3 1
920 307 1 4.2380000000000001e-01 2.8253839761097545e+01 8.5129408097960422e+00 2.4824992438487783e+00 0 3 1
921 307 1 4.2380000000000001e-01 2.8692625012166960e+01 8.5248485766808315e+00 4.0555514486431399e+00 0 3 1
1670 557 1 4.2380000000000001e-01 2.5623213386981984e+01 9.4731440636132902e+00 1.4210422151199342e+00 -1 0 -2
984 328 1 4.2380000000000001e-01 2.5426150392241105e+01 5.2653642511214622e+00 2.3994475166357279e+00 0 0 2
2381 794 1 4.2380000000000001e-01 2.8875923453504086e+01 8.0558918631584113e+00 -2.9777539642787249e-01 0 2 0
2380 794 2 -8.4760000000000002e-01 2.8965966374753812e+01 8.3775337150568401e+00 6.4490260606942851e-01 0 2 0
2382 794 1 4.2380000000000001e-01 2.9829813099307387e+01 8.0499056338432116e+00 1.0278287351945072e+00 0 2 0
1927 643 2 -8.4760000000000002e-01 2.5196188054244498e+01 1.1139195783362823e+01 4.9609528830810117e+00 -4 5 -2
1928 643 1 4.2380000000000001e-01 2.5967375311610521e+01 1.1675468731186003e+01 5.3042957054675508e+00 -4 5 -2
1669 557 2 -8.4760000000000002e-01 2.6247414413494781e+01 9.5210973368007785e+00 6.4112165640362151e-01 -1 0 -2
481 161 2 -8.4760000000000002e-01 3.4667904847270563e+01 9.8445833800317555e+00 4.9028904747393618e+00 -1 1 1
482 161 1 4.2380000000000001e-01 3.5215098232273604e+01 1.0370336590490586e+01 4.2514569648547011e+00 -1 1 1
483 161 1 4.2380000000000001e-01 3.3735875293766917e+01 9.7475475310621231e+00 4.5534507687946926e+00 -1 1 1
1395 465 1 4.2380000000000001e-01 3.1040036685446477e+01 8.5480408180658483e+00 3.0957800735551975e+00 -2 2 -2
1394 465 1 4.2380000000000001e-01 3.0217052597137577e+01 7.1610170528707560e+00 2.8388166293414923e+00 -2 2 -2
670 224 2 -8.4760000000000002e-01 3.3663614888373743e+01 8.5152480064914666e+00 2.0931569738651810e+00 1 2 0
671 224 1 4.2380000000000001e-01 3.2839693200012306e+01 7.9776607229527325e+00 2.2730329082952445e+00 1 2 0
672 224 1 4.2380000000000001e-01 3.3721130218942939e+01 8.7202819700407161e+00 1.1159898450594021e+00 1 2 0
3305 1102 1 4.2380000000000001e-01 3.5216176336266216e+01 6.6888548867724094e+00 4.4240025038293744e+00 3 -2 -1
1393 465 2 -8.4760000000000002e-01 3.0870744013756468e+01 7.8075385941244058e+00 2.4452422557487457e+00 -2 2 -2
3304 1102 2 -8.4760000000000002e-01 3.4836699950960373e+01 6.5245231623041056e+00 3.5134010492077579e+00 3 -2 -1
3306 1102 1 4.2380000000000001e-01 3.4573443834673363e+01 7.3961590953913099e+00 3.0996977785872053e+00 3 -2 -1
3502 1168 2 -8.4760000000000002e-01 3.1781065715651103e+01 9.6907944218390689e+00 4.6095997804734665e+00 0 2 0
3503 1168 1 4.2380000000000001e-01 3.1622040591801380e+01 1.0673238036288588e+01 4.5110178633018370e+00 0 2 0
3617 1206 1 4.2380000000000001e-01 3.4102993697590541e+01 1.1118303941772275e+01 1.8156649144232988e+00 3 3 -2
2230 744 2 -8.4760000000000002e-01 2.8783665052880728e+01 1.7561905272554036e+01 8.2636830432939554e+00 -1 -2 2
2298 766 1 4.2380000000000001e-01 5.8603401911313515e+00 1.3761349738873983e+01 1.2017650097650610e+00 3 2 1
2296 766 2 -8.4760000000000002e-01 5.0394726711662434e+00 1.3258544544933365e+01 9.3053358393994845e-01 3 2 1
2297 766 1 4.2380000000000001e-01 4.2974621811464395e+00 1.3462278584304400e+01 1.5693725077274219e+00 3 2 1
1525 509 2 -8.4760000000000002e-01 4.0112472953611800e+00 1.3369515005463091e+01 4.3498333452238365e+00 2 -1 2
657 219 1 4.2380000000000001e-01 6.8861985987848318e-01 1.2652371947675286e+01 2.6524724830725419e+00 -1 1 -1
1526 509 1 4.2380000000000001e-01 4.9802001361391914e+00 1.3617167394090600e+01 4.3485808065479530e+00 2 -1 2
592 198 2 -8.4760000000000002e-01 2.0297192192171720e+00 1.1846588299405321e+01 2.6803726101511227e+00 1 1 -1
594 198 1 4.2380000000000001e-01 2.6883454705074570e+00 1.2273623601092316e+01 3.3000947162921679e+00 1 1 -1
655 219 2 -8.4760000000000002e-01 -1.8380080466458748e-01 1.3027193556903198e+01 2.9664689530127615e+00 -1 1 -1
1516 506 2 -8.4760000000000002e-01 3.1159819766549313e+00 1.6505850585906831e+01 3.0370977920060160e+00 1 2 -2
3567 1189 1 4.2380000000000001e-01 3.5834910324623642e+01 1.6363835542318071e+01 3.9262030208176357e+00 2 0 3
1518 506 1 4.2380000000000001e-01 2.5607466292194365e+00 1.5679243902515900e+01 2.9441578148084186e+00 1 2 -2
4049 1350 1 4.2380000000000001e-01 3.4031536885737225e+01 1.6207815701530908e+01 1.2590862855491434e+01 -1 -2 0
2204 735 1 4.2380000000000001e-01 1.2180031150875033e+00 1.5301114967814888e+01 6.0558128075665962e+00 0 0 2
1517 506 1 4.2380000000000001e-01 2.7022120408868053e+00 1.7246617272392648e+01 2.5077004667024996e+00 1 2 -2
1768 590 2 -8.4760000000000002e-01 6.9421865040088591e+00 1.3365292455550799e+01 4.3958665359487732e+00 0 2 -1
1770 590 1 4.2380000000000001e-01 7.3812071628245581e+00 1.2578374305522074e+01 3.9620185567876405e+00 0 2 -1
3977 1326 1 4.2380000000000001e-01 1.0236622489781341e+01 1.5688517969006128e+01 4.5695935487227111e+00 -2 -3 -2
196 66 2 -8.4760000000000002e-01 6.2145500074545144e+00 1.5516696636056611e+01 2.4853345870595938e+00 -1 -1 0
198 66 1 4.2380000000000001e-01 7.1769782082787339e+00 1.5784175090265006e+01 2.5342274171315693e+00 -1 -1 0
303 101 1 4.2380000000000001e-01 1.0190843567687494e+01 1.1756616185741676e+01 1.1868230380222138e+00 1 -1 2
1769 590 1 4.2380000000000001e-01 6.5727803870497876e+00 1.3971321993502638e+01 3.6912596926319985e+00 0 2 -1
966 322 1 4.2380000000000001e-01 1.2839683127140351e+01 1.7751629477868065e+01 9.3436547962123111e+00 1 1 1
603 201 1 4.2380000000000001e-01 2.0937371210029866e+01 1.6696984053774389e-01 3.5679932184542844e+00 0 1 0
1300 434 2 -8.4760000000000002e-01 9.6978349065910798e+00 1.3276226928369862e+01 2.1318236016242245e+00 0 4 2
3978 1326 1 4.2380000000000001e-01 1.0614591783507738e+01 1.6251557824579336e+01 3.0838980867939680e+00 -2 -3 -2
1302 434 1 4.2380000000000001e-01 9.8687219903613705e+00 1.4146469955450677e+01 2.5940774289849236e+00 0 4 2
197 66 1 4.2380000000000001e-01 5.6673256523275262e+00 1.6136450433125784e+01 3.0480544148102164e+00 -1 -1 0
1301 434 1 4.2380000000000001e-01 8.9148041103940479e+00 1.3373320341945107e+01 1.5173006739682457e+00 0 4 2
3976 1326 2 -8.4760000000000002e-01 1.0440402673071414e+01 1.5429033682995115e+01 3.6254835810697825e+00 -2 -3 -2