LAMMPS data file via write_data, version 7 Aug 2019, timestep = 2000165

4500 atoms
2 atom types
3000 bonds
1 bond types
1500 angles
1 angle types

6.8306661845731753e-03 3.5524169333825157e+01 xlo xhi
-1.4083719042648823e-02 3.5571083719041397e+01 ylo yhi
-3.5097568488794195e-02 3.5539097568486390e+01 zlo zhi

Masses

1 1.00794
2 15.9994

Pair Coeffs # lj/cut/coul/long/gpu

1 0 0
2 0.155394 3.16556

Bond Coeffs # harmonic

1 5000 1

Angle Coeffs # harmonic

1 500 109.47

Atoms # full

4435 1479 2 -8.4760000000000002e-01 3.0255468432332244e+00 3.3737646328657673e+00 3.6434313679854973e+00 0 0 0
4436 1479 1 4.2380000000000001e-01 3.4951332914556454e+00 3.7718179893111592e+00 2.8552729001614425e+00 0 0 0
650 217 1 4.2380000000000001e-01 8.5965361320326716e-01 2.6086439367444916e+00 2.8218103138723962e+00 1 0 1
4437 1479 1 4.2380000000000001e-01 3.4760569131208290e+00 2.5195994603766998e+00 3.9034211437967112e+00 0 0 0
3301 1101 2 -8.4760000000000002e-01 4.3227936574601600e+00 1.1258216587344756e+00 4.5173618916304408e+00 -2 0 1
649 217 2 -8.4760000000000002e-01 2.7609880938598164e-01 3.1731186936107343e+00 3.4057486826033232e+00 1 0 1
4146 1382 1 4.2380000000000001e-01 3.9980154764310667e+00 3.4540631352595739e+00 9.5054288936347964e-01 2 -1 0
4469 1490 1 4.2380000000000001e-01 5.3082588432798949e-01 1.0924829730434478e+00 8.1446799424517990e-01 1 0 2
1811 604 1 4.2380000000000001e-01 3.8577191703491858e+00 1.0061370755623722e+00 4.6827004631881630e-01 -1 0 1
1812 604 1 4.2380000000000001e-01 2.4121163281978855e+00 1.7566083642026931e+00 5.8682242250150285e-01 -1 0 1
1810 604 2 -8.4760000000000002e-01 3.3735573678997799e+00 1.8712290066208179e+00 3.3653393602356807e-01 -1 0 1
3302 1101 1 4.2380000000000001e-01 4.1883992700333001e+00 9.9643280457916839e-01 5.4998831260361518e+00 -2 0 1
3057 1019 1 4.2380000000000001e-01 2.0094727880717871e+00 4.9975180043462766e+00 5.8652819711713482e+00 1 0 1
4144 1382 2 -8.4760000000000002e-01 4.2830533428006952e+00 4.3420369581158029e+00 1.3116619535675491e+00 2 -1 0
4145 1382 1 4.2380000000000001e-01 5.2120486642906672e+00 4.2714242588816402e+00 1.6751624897938078e+00 2 -1 0
3995 1332 1 4.2380000000000001e-01 5.4576613619899774e+00 4.6378209846625627e+00 6.2823817319371749e+00 0 0 0
4066 1356 2 -8.4760000000000002e-01 1.1359094485392494e+00 5.3481186997174313e-01 4.6939271605923194e+00 1 2 -1
3996 1332 1 4.2380000000000001e-01 4.3002811854450345e+00 4.6873105201287517e+00 7.4334909323106571e+00 0 0 0
1916 639 1 4.2380000000000001e-01 1.0698695379672789e+00 4.6986743726636595e+00 3.1999991421022673e+00 0 -1 1
1915 639 2 -8.4760000000000002e-01 1.0122498007365013e+00 5.6797608411466598e+00 3.0147956461909535e+00 0 -1 1
4068 1356 1 4.2380000000000001e-01 1.9539855950621088e+00 5.9941721580844831e-01 4.1223250323769527e+00 1 2 -1
357 119 1 4.2380000000000001e-01 3.2002881666738190e+01 6.8340592123539423e+00 7.3023071630820757e-01 -1 -1 -1
3055 1019 2 -8.4760000000000002e-01 2.6142244997935120e+00 5.6767401843950616e+00 5.4492483949280519e+00 1 0 1
4468 1490 2 -8.4760000000000002e-01 1.1226757530601901e+00 9.1756328395680109e-01 1.6014037308396523e+00 1 0 2
4107 1369 1 4.2380000000000001e-01 6.4315542333801536e+00 4.8729742848079596e+00 3.8984779789109871e+00 1 -2 2
241 81 2 -8.4760000000000002e-01 6.3939799084650719e+00 9.7358101524434915e-01 1.9182734170032811e+00 1 -2 0
1708 570 2 -8.4760000000000002e-01 6.7592200974685763e+00 3.3918152279264651e+00 2.4862773732977224e+00 -1 0 1
871 291 2 -8.4760000000000002e-01 9.4347500393067314e+00 2.9932668507845896e+00 3.6096617361085825e+00 -1 1 1
872 291 1 4.2380000000000001e-01 9.6857505226545531e+00 2.2761448895816536e+00 2.9593649353528293e+00 -1 1 1
1709 570 1 4.2380000000000001e-01 7.6536486359350748e+00 3.4072315124476478e+00 2.9333914814835462e+00 -1 0 1
27 9 1 4.2380000000000001e-01 8.2263374558037512e+00 1.2099049716228139e+00 4.4782654435885414e+00 -1 1 2
873 291 1 4.2380000000000001e-01 9.5779985590935244e+00 3.8893730809911866e+00 3.1893945114812055e+00 -1 1 1
1324 442 2 -8.4760000000000002e-01 1.1600418739589793e+01 5.0504468766540045e+00 1.8917466681627135e+00 0 0 0
4152 1384 1 4.2380000000000001e-01 1.0142398145167371e+01 2.3223491252105575e+00 5.1119001050116664e+00 1 0 -2
4105 1369 2 -8.4760000000000002e-01 6.2927568387496402e+00 5.2072001747592980e+00 4.8307758280679716e+00 1 -2 2
4106 1369 1 4.2380000000000001e-01 7.1706952517424210e+00 5.4889996960203105e+00 5.2180280795278957e+00 1 -2 2
4150 1384 2 -8.4760000000000002e-01 1.0399759069503098e+01 1.9267848373707717e+00 5.9936287157223216e+00 1 0 -2
1710 570 1 4.2380000000000001e-01 6.4923775329159898e+00 2.4447893508299807e+00 2.3071456247737472e+00 -1 0 1
149 50 1 4.2380000000000001e-01 1.2317314250489810e+01 1.9152748351568127e+00 2.1100892871620540e+00 -1 -1 0
1326 442 1 4.2380000000000001e-01 1.1921918294523405e+01 5.4263674257938588e+00 2.7609260813539445e+00 0 0 0
3404 1135 1 4.2380000000000001e-01 1.0388999895994086e+01 3.1508308009791236e-01 1.4751628141397672e+00 0 0 1
25 9 2 -8.4760000000000002e-01 7.3265381052845653e+00 8.9933487902392273e-01 4.7849551756360817e+00 -1 1 2
242 81 1 4.2380000000000001e-01 5.4756020240295458e+00 5.9802016875009456e-01 1.7930240138578373e+00 1 -2 0
3422 1141 1 4.2380000000000001e-01 1.0005720799634386e+01 5.3463500797833516e+00 1.2242116976803763e+00 0 -1 0
1325 442 1 4.2380000000000001e-01 1.2087925716785968e+01 4.1994808180182464e+00 1.6959283720203302e+00 0 0 0
3403 1135 2 -8.4760000000000002e-01 1.0596847076113978e+01 7.5391679596722927e-01 2.3494485646732377e+00 0 0 1
26 9 1 4.2380000000000001e-01 6.6181505524621338e+00 1.4754290556266907e+00 4.3769675187606527e+00 -1 1 2
4427 1476 1 4.2380000000000001e-01 1.0993746336382630e+01 4.3120907060128655e-01 5.4874656678035958e+00 1 0 -1
243 81 1 4.2380000000000001e-01 7.0079558945223610e+00 2.5260654727909720e-01 2.2398018817232401e+00 1 -2 0
3464 1155 1 4.2380000000000001e-01 1.2404114126226622e+01 1.9073554284683862e+00 1.6419799425330969e-01 -1 0 0
148 50 2 -8.4760000000000002e-01 1.2835920163365737e+01 2.6901152786342908e+00 1.7483963084209648e+00 -1 -1 0
150 50 1 4.2380000000000001e-01 1.3805229909295807e+01 2.5725287202058231e+00 1.9646451083431657e+00 -1 -1 0
4477 1493 2 -8.4760000000000002e-01 1.5261500300423483e+01 1.6991306627897516e+00 3.1285923867315275e+00 0 -1 -1
4479 1493 1 4.2380000000000001e-01 1.5651770041872163e+01 7.8366724348798578e-01 3.0297626306826837e+00 0 -1 -1
4419 1473 1 4.2380000000000001e-01 1.6014985622561355e+01 2.2654508623553951e+00 1.4923178787608746e+00 0 1 0
315 105 1 4.2380000000000001e-01 1.4273200912855261e+01 3.5943001437833257e+00 5.4139733792952436e+00 2 2 1
351 117 1 4.2380000000000001e-01 1.2617501032637161e+01 4.9194449946809116e-01 5.4222054276456344e+00 0 0 0
349 117 2 -8.4760000000000002e-01 1.3503489912757535e+01 9.3712239395068597e-01 5.2918533878095069e+00 0 0 0
4478 1493 1 4.2380000000000001e-01 1.4649006604821958e+01 1.7168413637126998e+00 3.9189650273947527e+00 0 -1 -1
313 105 2 -8.4760000000000002e-01 1.4727367005578168e+01 4.3792042812327914e+00 4.9922985500730137e+00 2 2 1
3583 1195 2 -8.4760000000000002e-01 1.6372512572425968e+01 5.1905316959964560e+00 2.8705817329176790e+00 0 0 0
3584 1195 1 4.2380000000000001e-01 1.5868013213488799e+01 4.5880108604575902e+00 3.4891285334482327e+00 0 0 0
283 95 2 -8.4760000000000002e-01 1.7871143273791841e+01 7.8460795973114106e-01 5.4491060679042711e+00 0 1 0
284 95 1 4.2380000000000001e-01 1.8300015378403970e+01 1.4855697148716343e+00 4.8791299868081204e+00 0 1 0
314 105 1 4.2380000000000001e-01 1.4038842301397320e+01 5.0096292842617904e+00 4.6336216830415200e+00 2 2 1
2506 836 2 -8.4760000000000002e-01 1.8154349124395775e+01 1.1464251115679984e+01 1.7215377388848278e+01 0 0 0
3794 1265 1 4.2380000000000001e-01 1.3797105121006650e+01 6.4778557255034723e+00 1.6153171422024311e+01 -1 0 -1
2555 852 1 4.2380000000000001e-01 2.3134993591882672e+01 2.0291490529746148e+00 1.7851413960039817e+00 1 1 1
2554 852 2 -8.4760000000000002e-01 2.2841763041147708e+01 2.3962939990419310e+00 2.6679615922023139e+00 1 1 1
2556 852 1 4.2380000000000001e-01 2.2360249911906358e+01 1.6857098552530363e+00 3.1811539650320269e+00 1 1 1
2774 925 1 4.2380000000000001e-01 2.0660062755493879e+01 4.2498375885177904e+00 4.2817524086044010e+00 0 1 1
2775 925 1 4.2380000000000001e-01 2.1672655530984024e+01 3.5957595100767210e+00 3.1799953114756310e+00 0 1 1
2773 925 2 -8.4760000000000002e-01 2.0775635837759907e+01 4.0164250958926617e+00 3.3161886043809741e+00 0 1 1
2816 939 1 4.2380000000000001e-01 1.7538325677859934e+01 3.6081884606277854e+00 3.1318237673391232e+00 0 2 0
2817 939 1 4.2380000000000001e-01 1.9143573319297015e+01 3.4041465105283586e+00 3.3522239476063569e+00 0 2 0
2815 939 2 -8.4760000000000002e-01 1.8239126996222932e+01 3.0161759403660948e+00 3.5300068614878528e+00 0 2 0
4279 1427 2 -8.4760000000000002e-01 2.0966091916622734e+01 4.4037224968995323e+00 6.0801886575384421e+00 0 -1 2
2948 983 1 4.2380000000000001e-01 1.8605671436165739e+01 1.6300959264254016e+00 2.6081932604032652e+00 1 0 0
2947 983 2 -8.4760000000000002e-01 1.8908132271227629e+01 7.2869398412483799e-01 2.2981237758024800e+00 1 0 0
4494 1498 1 4.2380000000000001e-01 2.1760689236991823e+01 1.2058797629236311e+00 5.3522211510601352e+00 0 1 1
2949 983 1 4.2380000000000001e-01 1.9073044595358315e+01 7.5339753161231360e-01 1.3120483409015842e+00 1 0 0
202 68 2 -8.4760000000000002e-01 2.3176374138541807e+01 9.8207686044544773e-01 2.6970565341764891e-01 -3 0 1
3791 1264 1 4.2380000000000001e-01 2.4453351298740355e+01 3.1326747170387343e+00 3.0821189519520336e+00 1 -1 -1
3792 1264 1 4.2380000000000001e-01 2.5371524068788705e+01 3.9523932478405923e+00 2.0087831148294542e+00 1 -1 -1
3790 1264 2 -8.4760000000000002e-01 2.5281487961929425e+01 3.6814396968953016e+00 2.9672344934317345e+00 1 -1 -1
4440 1480 1 4.2380000000000001e-01 2.4783703572139927e+01 3.8806896894790677e-01 5.3712131680547170e-01 0 0 1
613 205 2 -8.4760000000000002e-01 2.7434698561052716e+01 1.0933998369256286e+00 3.9816514896871595e+00 -1 1 0
3861 1287 1 4.2380000000000001e-01 2.5982746979591862e+01 4.2531362299133502e+00 4.6350534301893394e+00 1 -1 2
3859 1287 2 -8.4760000000000002e-01 2.6555725283444922e+01 4.5220000123854112e+00 5.4093655119250590e+00 1 -1 2
3860 1287 1 4.2380000000000001e-01 2.7517314045578818e+01 4.5018309302348669e+00 5.1353375090319959e+00 1 -1 2
1652 551 1 4.2380000000000001e-01 2.8641128742899543e+01 3.0962508304777776e+00 5.1340990018864885e-01 0 0 0
1651 551 2 -8.4760000000000002e-01 2.9522888836232394e+01 3.5633251653133144e+00 4.4638880159506089e-01 0 0 0
2454 818 1 4.2380000000000001e-01 2.8389126709978761e+01 3.8238923537032594e+00 2.9879669808239377e+00 -1 2 1
614 205 1 4.2380000000000001e-01 2.7857411880102905e+01 1.9994019909099277e+00 4.0066442854923103e+00 -1 1 0
2452 818 2 -8.4760000000000002e-01 2.8667858833153893e+01 3.5828211563107537e+00 3.9176681810698439e+00 -1 2 1
3797 1266 1 4.2380000000000001e-01 2.6719211435911745e+01 1.4783924805513193e+00 6.4638913381883767e-01 -1 2 0
615 205 1 4.2380000000000001e-01 2.6550728455013495e+01 1.1250110501149841e+00 4.4482869829573488e+00 -1 1 0
2745 915 1 4.2380000000000001e-01 2.9804666529459794e+01 4.8496484374619291e+00 1.4400354949913927e+00 0 0 1
60 20 1 4.2380000000000001e-01 3.5071819825460679e+01 1.2813673730149254e+01 1.7480797067218557e+01 1 -1 1
2453 818 1 4.2380000000000001e-01 2.9623809294174592e+01 3.8416052204883986e+00 4.0567394582520322e+00 -1 2 1
2821 941 2 -8.4760000000000002e-01 2.5261820626745791e+01 7.6146150124702516e-01 5.4116463266152044e+00 2 0 1
3796 1266 2 -8.4760000000000002e-01 2.7206267800262534e+01 2.3370982607058481e+00 4.8654054053701878e-01 -1 2 0
4438 1480 2 -8.4760000000000002e-01 2.5683585677652442e+01 1.6698574949420822e-01 9.1326687175208354e-01 0 0 1
2475 825 1 4.2380000000000001e-01 2.3907209602251228e+01 3.0074364623643062e+00 1.7385030387468177e+01 -2 2 -1
2823 941 1 4.2380000000000001e-01 2.4463823472130642e+01 1.3598801500948945e+00 5.4840850417514195e+00 2 0 1
651 217 1 4.2380000000000001e-01 3.5496474794575946e+01 2.6382710635685078e+00 4.1968887358945297e+00 0 0 1
2935 979 2 -8.4760000000000002e-01 3.3181721730249421e+01 6.9475293518684789e-01 1.7204497176886786e+00 -1 -1 1
1078 360 2 -8.4760000000000002e-01 3.3635447166053808e+01 3.4321512241788898e+00 1.8331954438018183e+00 -1 0 0
42 14 1 4.2380000000000001e-01 3.4623142087338167e+01 3.6365670386326689e+00 5.7165424744683269e-01 1 1 0
1079 360 1 4.2380000000000001e-01 3.2699446071996718e+01 3.6466648234424630e+00 2.1125463534015108e+00 -1 0 0
835 279 2 -8.4760000000000002e-01 3.1604055603755615e+01 4.3152084755783759e+00 3.4008757874838373e+00 -2 -1 0
2937 979 1 4.2380000000000001e-01 3.3396294293695860e+01 1.6644210118370941e+00 1.6027458855504777e+00 -1 -1 1
837 279 1 4.2380000000000001e-01 3.0966218540543750e+01 4.8533566889542765e+00 2.8497755256835768e+00 -2 -1 0
1080 360 1 4.2380000000000001e-01 3.4233484978455593e+01 3.4438388790955097e+00 2.6346723737334043e+00 -1 0 0
836 279 1 4.2380000000000001e-01 3.2401038491261374e+01 4.8744291052269606e+00 3.6294402007497411e+00 -2 -1 0
1712 571 1 4.2380000000000001e-01 3.2302180849089012e+01 2.7738482965666384e+00 4.0093212497954083e+00 -1 1 0
2684 895 1 4.2380000000000001e-01 3.3482875580243459e+01 8.3223212189582851e-01 4.3333644105803701e+00 0 2 0
1711 571 2 -8.4760000000000002e-01 3.2981598854243742e+01 2.3867718994879223e+00 4.6327906863016626e+00 -1 1 0
48 16 1 4.2380000000000001e-01 3.0278289522725956e+01 7.9977580677076254e-01 5.8419427569102869e+00 1 1 1
1341 447 1 4.2380000000000001e-01 3.4552618947039107e+01 4.6478346957803875e+00 5.2813383899649615e+00 -1 2 0
209 70 1 4.2380000000000001e-01 3.7814578715925840e+00 5.9775785068398957e+00 9.3863481519443015e-01 -1 -1 1
4299 1433 1 4.2380000000000001e-01 1.9943902262468291e-01 6.9484227585881415e+00 4.5622955934198145e-01 -1 -1 1
3067 1023 2 -8.4760000000000002e-01 5.8707401064101532e+00 1.1381380128951299e+01 1.0139811830825820e+00 0 0 2
2756 919 1 4.2380000000000001e-01 1.1956876544731514e+00 7.8013687426381741e+00 4.8169256404307443e+00 2 0 -1
2755 919 2 -8.4760000000000002e-01 1.4120556703062088e+00 8.6931941457637922e+00 4.4194543034268756e+00 2 0 -1
741 247 1 4.2380000000000001e-01 8.3766460489524064e-01 7.8710853894519879e+00 2.2599126680813018e+00 0 -1 0
739 247 2 -8.4760000000000002e-01 4.4495687924425703e-01 8.2164247988372576e+00 1.4074615480551269e+00 0 -1 0
246 82 1 4.2380000000000001e-01 2.9481245443692461e+00 8.2431490108549390e+00 3.9560316783473168e+00 1 0 0
2757 919 1 4.2380000000000001e-01 8.5460093276684834e-01 9.3979152090058982e+00 4.8585028632112515e+00 2 0 -1
740 247 1 4.2380000000000001e-01 1.0464158429239515e-01 9.1459892669224594e+00 1.5497530517514786e+00 0 -1 0
210 70 1 4.2380000000000001e-01 3.5284264257437838e+00 7.1979804879992475e+00 1.9939184202377960e+00 -1 -1 1
208 70 2 -8.4760000000000002e-01 3.2046123276582144e+00 6.7661709106300405e+00 1.1519944316192667e+00 -1 -1 1
1112 371 1 4.2380000000000001e-01 4.6626994170260012e+00 1.0048153120538979e+01 3.0743018866098537e-02 1 1 1
1113 371 1 4.2380000000000001e-01 3.8390918767065059e+00 8.6659978439167151e+00 3.1064842381451191e-01 1 1 1
245 82 1 4.2380000000000001e-01 4.5614695496407602e+00 8.4464488744591080e+00 3.8049808575328199e+00 1 0 0
244 82 2 -8.4760000000000002e-01 3.7587301788239187e+00 7.9806604130870413e+00 3.4324198736854474e+00 1 0 0
259 87 2 -8.4760000000000002e-01 1.1845959605017673e+00 1.2009491691317271e+01 4.6374673202711897e-01 1 1 0
260 87 1 4.2380000000000001e-01 2.0439663766703173e+00 1.1779416800691548e+01 9.2058264547824997e-01 1 1 0
3038 1013 1 4.2380000000000001e-01 5.2267927801597667e+00 1.0741127496208120e+01 5.3751010054700599e+00 0 2 2
3068 1023 1 4.2380000000000001e-01 4.9982003266063693e+00 1.1520793599524026e+01 1.4823713100096467e+00 0 0 2
4157 1386 1 4.2380000000000001e-01 1.1029220051263200e+00 1.1966545341224631e+01 5.4122845998543996e+00 1 0 1
1917 639 1 4.2380000000000001e-01 1.8244067577110463e+00 5.9718827628410294e+00 2.5096056623728629e+00 0 -1 1
782 261 1 4.2380000000000001e-01 3.5284794109427153e+01 1.1296069107375372e+01 1.7299206432373040e+00 1 1 1
407 136 1 4.2380000000000001e-01 3.2553765107862405e+00 1.1643977288637082e+01 2.9181900227228907e+00 2 -2 0
4134 1378 1 4.2380000000000001e-01 2.7810053806189419e+01 9.3614832227994133e-02 1.5709808795670153e+01 0 0 2
3056 1019 1 4.2380000000000001e-01 2.5379837639805336e+00 5.6254531205253011e+00 4.4534027585386742e+00 1 0 1
4156 1386 2 -8.4760000000000002e-01 1.8782989384401467e+00 1.1477280466409503e+01 5.8117372547725834e+00 1 0 1
4158 1386 1 4.2380000000000001e-01 2.7254194596476036e+00 1.1963998926257231e+01 5.5980946476156683e+00 1 0 1
3037 1013 2 -8.4760000000000002e-01 5.0574412618918894e+00 1.1627935649791416e+01 5.8052666555638170e+00 0 2 2
2622 874 1 4.2380000000000001e-01 2.0232177698387815e+01 9.0958702191298482e+00 1.7662743874626734e+01 1 -2 -1
580 194 2 -8.4760000000000002e-01 8.8984164072112595e+00 8.5938075298587737e+00 1.0258269217818976e+00 -2 1 1
2269 757 2 -8.4760000000000002e-01 5.7581895818191660e+00 9.3333903191732279e+00 4.7770751139370162e+00 2 1 1
2270 757 1 4.2380000000000001e-01 6.6549168193175010e+00 9.2814119684443508e+00 4.3373825691346779e+00 2 1 1
2627 876 1 4.2380000000000001e-01 8.6903279793083108e+00 6.9205926047250887e+00 4.3282244617136314e+00 1 1 1
2626 876 2 -8.4760000000000002e-01 8.6241708836573281e+00 6.3902186296966859e+00 5.1734924345093800e+00 1 1 1
2502 834 1 4.2380000000000001e-01 8.8025341171062319e+00 9.8143527095452505e+00 3.7920210229703675e+00 0 2 0
2501 834 1 4.2380000000000001e-01 8.3212491492604350e+00 8.8666787403611469e+00 2.5521386831211985e+00 0 2 0
2500 834 2 -8.4760000000000002e-01 8.1188637701680619e+00 9.1500428480408296e+00 3.4896332317071401e+00 0 2 0
3421 1141 2 -8.4760000000000002e-01 9.0132297522063443e+00 5.4288896421831732e+00 1.1331004992417288e+00 0 -1 0
2628 876 1 4.2380000000000001e-01 9.4585756066040538e+00 6.5138270155632210e+00 5.7107465127304327e+00 1 1 1
1183 395 2 -8.4760000000000002e-01 9.5375050055727595e+00 1.1158752773562831e+01 1.0893059148305690e+00 0 0 0
1890 630 1 4.2380000000000001e-01 1.1317614333392232e+01 9.8642990357446170e+00 3.0370528526540408e+00 0 0 0
2290 764 2 -8.4760000000000002e-01 9.7982610260166023e+00 1.1197982164744536e+01 4.1210875970566034e+00 -1 0 -1
1901 634 1 4.2380000000000001e-01 1.2050324881646715e+01 6.3323408069980518e+00 5.2303368858256603e+00 -1 -2 1
2064 688 1 4.2380000000000001e-01 1.0571159030628401e+01 8.5101745712038461e+00 6.1048067603415934e-01 0 -2 1
1888 630 2 -8.4760000000000002e-01 1.2144577447819527e+01 9.3135213262149996e+00 3.1507495804603107e+00 0 0 0
2271 757 1 4.2380000000000001e-01 5.6882506179756058e+00 8.6221923823946778e+00 5.4766872508249138e+00 2 1 1
2291 764 1 4.2380000000000001e-01 9.4935280738468233e+00 1.1406978405355327e+01 5.0503936646021561e+00 -1 0 -1
3423 1141 1 4.2380000000000001e-01 8.7519891636771501e+00 6.3923915306177399e+00 1.1928392547566919e+00 0 -1 0
582 194 1 4.2380000000000001e-01 9.1619276554777649e+00 9.5585111705222960e+00 1.0335647294297425e+00 -2 1 1
1184 395 1 4.2380000000000001e-01 1.0037604230795004e+01 1.1459709085771236e+01 2.7722392548641833e-01 0 0 0
3585 1195 1 4.2380000000000001e-01 1.5754976084598853e+01 5.8885893635322022e+00 2.5079315957131576e+00 0 0 0
4043 1348 1 4.2380000000000001e-01 1.7814490216693223e+01 6.3186348718251111e+00 3.2754512928684743e+00 0 -1 0
2460 820 1 4.2380000000000001e-01 1.7331184187433454e+01 1.0038170136336978e+01 5.3056930158064708e-01 0 0 1
1682 561 1 4.2380000000000001e-01 1.3382394075546094e+01 7.5846580995127884e+00 1.6244386796200017e+00 1 2 1
1681 561 2 -8.4760000000000002e-01 1.4221742710742085e+01 7.0497837313137763e+00 1.7221857238254197e+00 1 2 1
4322 1441 1 4.2380000000000001e-01 1.7144655204353192e+01 1.0429322540637182e+01 3.1989097876387937e+00 -1 -1 0
4321 1441 2 -8.4760000000000002e-01 1.7025021125146996e+01 1.0923814124294815e+01 2.3379118276115136e+00 -1 -1 0
1889 630 1 4.2380000000000001e-01 1.2455581069754190e+01 9.3710654412613703e+00 4.0994942486322996e+00 0 0 0
1900 634 2 -8.4760000000000002e-01 1.2561282665615606e+01 6.0629779336072209e+00 4.4139310376434020e+00 -1 -2 1
3484 1162 2 -8.4760000000000002e-01 1.7459204965139850e+01 9.3275343038236844e+00 4.6821274075441099e+00 -1 -1 2
3485 1162 1 4.2380000000000001e-01 1.6855613192068354e+01 9.1774678830243879e+00 5.4652673271693830e+00 -1 -1 2
2062 688 2 -8.4760000000000002e-01 1.1567823128839706e+01 8.5001959512299710e+00 6.9240847981504117e-01 0 -2 1
2063 688 1 4.2380000000000001e-01 1.1826891718401349e+01 8.7098240293794511e+00 1.6353245139275525e+00 0 -2 1
1902 634 1 4.2380000000000001e-01 1.2987858467174920e+01 6.8703962195189776e+00 4.0061810530118249e+00 -1 -2 1
926 309 1 4.2380000000000001e-01 1.2873708603719546e+01 1.0875911881751952e+01 2.5357955175293010e+00 1 0 -1
3486 1162 1 4.2380000000000001e-01 1.7755592016907478e+01 8.4454070246960065e+00 4.3158525244022954e+00 -1 -1 2
1683 561 1 4.2380000000000001e-01 1.4473417058046149e+01 6.6595968943017141e+00 8.3642847765750572e-01 1 2 1
2340 780 1 4.2380000000000001e-01 2.1427549359166122e+01 5.7721307175323560e+00 2.7785230015839102e+00 0 1 1
2586 862 1 4.2380000000000001e-01 1.9568265315048862e+01 9.4040518801286250e+00 1.4487424710482413e+00 1 0 -1
4323 1441 1 4.2380000000000001e-01 1.7699019892889087e+01 1.1660384880246994e+01 2.2801085450574776e+00 -1 -1 0
2339 780 1 4.2380000000000001e-01 2.0981614721442121e+01 7.2139165820116311e+00 2.1544833079475998e+00 0 1 1
1565 522 1 4.2380000000000001e-01 1.8398942254498145e+01 6.4789278917463760e+00 5.5712714403424251e+00 1 2 0
443 148 1 4.2380000000000001e-01 2.1959254396849669e+01 1.1492698851261062e+01 5.5607805399087606e+00 0 0 1
1516 506 2 -8.4760000000000002e-01 2.1498255863036338e+01 8.4356273127467993e+00 4.8993060725819433e+00 -1 0 0
4042 1348 2 -8.4760000000000002e-01 1.8353899345434286e+01 7.0990147369199486e+00 3.5919889723342329e+00 0 -1 0
1517 506 1 4.2380000000000001e-01 2.0924326235809133e+01 8.0281135043973695e+00 4.1888918141104554e+00 -1 0 0
2338 780 2 -8.4760000000000002e-01 2.1757926906526535e+01 6.6571621387178839e+00 2.4503133202903222e+00 0 1 1
1412 471 1 4.2380000000000001e-01 2.2474794647619120e+01 9.9267270138874970e+00 1.6296333197425521e+00 0 0 1
2492 831 1 4.2380000000000001e-01 1.8073365455364588e+01 1.1068572539197685e+01 4.9409407362044941e+00 0 1 -1
3 1 1 4.2380000000000001e-01 2.3282630275694569e+01 7.4328370844790799e+00 2.1624029139141432e+00 0 0 -1
4044 1348 1 4.2380000000000001e-01 1.8913246247876810e+01 7.4451284255118537e+00 2.8386713575720188e+00 0 -1 0
1518 506 1 4.2380000000000001e-01 2.1267173042319769e+01 9.4034046479060720e+00 5.0001008538257370e+00 -1 0 0
2491 831 2 -8.4760000000000002e-01 1.8460585769034090e+01 1.1961171241486959e+01 5.1721978193277431e+00 0 1 -1
444 148 1 4.2380000000000001e-01 2.0421138302730505e+01 1.1937066258746954e+01 5.2386524522759039e+00 0 0 1
1815 605 1 4.2380000000000001e-01 2.3478432244835851e+01 9.6913583124390712e+00 5.1364599859160789e+00 0 1 -1
1814 605 1 4.2380000000000001e-01 2.4080395311405340e+01 8.5286226863942201e+00 4.1603883841621450e+00 0 1 -1
2584 862 2 -8.4760000000000002e-01 1.9662476373805813e+01 8.4089684917846785e+00 1.4816773368900171e+00 1 0 -1
442 148 2 -8.4760000000000002e-01 2.1153169656336026e+01 1.1298205182764271e+01 5.0017177154603116e+00 0 0 1
1413 471 1 4.2380000000000001e-01 2.1891770539097777e+01 1.0693070616710898e+01 2.9486594065177658e+00 0 0 1
1411 471 2 -8.4760000000000002e-01 2.2084362679504249e+01 1.0781694157542850e+01 1.9713133255601774e+00 0 0 1
2585 862 1 4.2380000000000001e-01 1.9791893077809746e+01 8.0555444587730403e+00 5.5512730001276378e-01 1 0 -1
2743 915 2 -8.4760000000000002e-01 2.9930260139147364e+01 5.7063130288820938e+00 1.9405383687928484e+00 0 0 1
2678 893 1 4.2380000000000001e-01 2.7536407571373630e+01 8.5579839109112044e+00 1.3499419464200439e+00 -1 -2 0
2677 893 2 -8.4760000000000002e-01 2.8418301242414010e+01 8.0888151991947144e+00 1.3020321107342447e+00 -1 -2 0
1813 605 2 -8.4760000000000002e-01 2.4308258439971031e+01 9.3340671074396582e+00 4.7076442466318698e+00 0 1 -1
1 1 2 -8.4760000000000002e-01 2.4232140512889369e+01 7.5785936298369565e+00 1.8843085819388434e+00 0 0 -1
2139 713 1 4.2380000000000001e-01 2.5902608483564638e+01 9.5757188542638723e+00 4.6191928982362338e+00 0 1 1
2137 713 2 -8.4760000000000002e-01 2.6881004494007030e+01 9.7391929506449859e+00 4.4920371901119074e+00 0 1 1
2138 713 1 4.2380000000000001e-01 2.7038218033046761e+01 1.0133001981150592e+01 3.5863057574306914e+00 0 1 1
2 1 1 4.2380000000000001e-01 2.4595071087653739e+01 6.7371838559327664e+00 1.4837313625236050e+00 0 0 -1
2679 893 1 4.2380000000000001e-01 2.8573860788875734e+01 7.7660226406266073e+00 3.6835264669277906e-01 -1 -2 0
1241 414 1 4.2380000000000001e-01 2.7992505774016536e+01 8.2014703377635172e+00 4.5835648548763821e+00 0 -1 1
1242 414 1 4.2380000000000001e-01 2.9043652622121481e+01 7.3688141780102043e+00 3.6514685440129071e+00 0 -1 1
2744 915 1 4.2380000000000001e-01 2.9464583357423308e+01 6.4468712934710792e+00 1.4559048327333004e+00 0 0 1
1240 414 2 -8.4760000000000002e-01 2.8675932995178584e+01 7.4713888976352969e+00 4.5758127370013231e+00 0 -1 1
368 123 1 4.2380000000000001e-01 2.5519759780767146e+01 8.7575088816530968e+00 1.6672718425044146e+00 0 0 1
367 123 2 -8.4760000000000002e-01 2.6177141107684808e+01 9.4695172545599675e+00 1.4201990187145583e+00 0 0 1
489 163 1 4.2380000000000001e-01 2.5609798708063707e+01 1.1079982734566123e+01 1.9257728769624287e+00 0 -1 -1
2543 848 1 4.2380000000000001e-01 2.7427549166391714e+01 9.7859681462140138e+00 6.1974693329792059e+00 0 -2 -2
1668 556 1 4.2380000000000001e-01 2.9583694254177125e+01 6.4703612523812470e+00 5.8091760779492700e+00 -1 0 0
369 123 1 4.2380000000000001e-01 2.5866729887358140e+01 9.9370754184533148e+00 5.9243978789649732e-01 0 0 1
4007 1336 1 4.2380000000000001e-01 3.1646149521998126e+01 9.4319130765849994e+00 1.1177906069937218e+00 0 1 1
1454 485 1 4.2380000000000001e-01 3.0171485143796723e+01 1.1240651053652199e+01 5.7236035145161939e+00 1 0 2
2825 942 1 4.2380000000000001e-01 3.4797747653279941e+01 5.7889431246534224e+00 3.3274499562278650e+00 1 -1 2
2824 942 2 -8.4760000000000002e-01 3.3904833035377791e+01 5.7817637320211741e+00 3.7777864151526224e+00 1 -1 2
781 261 2 -8.4760000000000002e-01 3.4527054528213768e+01 1.0831208792198387e+01 2.1880553253203887e+00 1 1 1
783 261 1 4.2380000000000001e-01 3.4556115365387811e+01 1.1031854949663515e+01 3.1673655300858661e+00 1 1 1
1650 550 1 4.2380000000000001e-01 3.0486569014696904e+01 1.0457435325016467e+01 2.8869113581513339e+00 1 1 0
1649 550 1 4.2380000000000001e-01 2.9662751907080871e+01 9.3192029017178513e+00 2.0545760445009833e+00 1 1 0
1648 550 2 -8.4760000000000002e-01 3.0540103074805312e+01 9.5466836630034351e+00 2.4772569343991098e+00 1 1 0
4006 1336 2 -8.4760000000000002e-01 3.2479207575467186e+01 9.6819392310090979e+00 6.2417912366115458e-01 0 1 1
4008 1336 1 4.2380000000000001e-01 3.3200955051263193e+01 9.9045699062512007e+00 1.2796692097921321e+00 0 1 1
2926 976 2 -8.4760000000000002e-01 3.2943798049139744e+01 8.4013229042685769e+00 4.4938794155057753e+00 0 1 0
2927 976 1 4.2380000000000001e-01 3.2388976815270240e+01 8.8799930932398077e+00 3.8132917684326517e+00 0 1 0
4470 1490 1 4.2380000000000001e-01 9.3257872528898023e-01 5.6440586905779355e-03 1.9652959520532516e+00 1 0 2
2928 976 1 4.2380000000000001e-01 3.2984314719854780e+01 8.9444379578709672e+00 5.3326498635060453e+00 0 1 0
2826 942 1 4.2380000000000001e-01 3.3624600771863527e+01 6.7207980974783608e+00 3.9773745747148777e+00 1 -1 2
527 176 1 4.2380000000000001e-01 3.4928822711325211e+01 1.1986106743220693e+01 5.8939495640041839e+00 1 0 1
5 2 1 4.2380000000000001e-01 2.3444731305906847e+00 1.4363674327504819e+01 4.7035879691181517e+00 -1 1 1
4 2 2 -8.4760000000000002e-01 2.5982429415476953e+00 1.4481705786838781e+01 3.7434730662160800e+00 -1 1 1
406 136 2 -8.4760000000000002e-01 3.5547868295438954e+00 1.2235262408997079e+01 2.1692661896815166e+00 2 -2 0
2849 950 1 4.2380000000000001e-01 1.0446841922127508e+00 1.5194291779068360e+01 3.1999155955415248e+00 2 0 0
408 136 1 4.2380000000000001e-01 3.3525675844260965e+00 1.3188163452244300e+01 2.3956267034415442e+00 2 -2 0
6 2 1 4.2380000000000001e-01 3.3319682693117647e+00 1.5157629070078229e+01 3.6732877115967235e+00 -1 1 1
3296 1099 1 4.2380000000000001e-01 4.8995974828440936e+00 1.6368703056840555e+01 5.2706370924922865e+00 0 -1 2
3297 1099 1 4.2380000000000001e-01 4.8094872843110128e+00 1.7235773574860680e+01 3.8896591372207103e+00 0 -1 2
3295 1099 2 -8.4760000000000002e-01 4.7679396564754422e+00 1.6316236229565412e+01 4.2806542249699691e+00 0 -1 2
526 176 2 -8.4760000000000002e-01 3.4953193309229846e+01 1.2069616973193474e+01 4.8976645556034359e+00 1 0 1
1146 382 1 4.2380000000000001e-01 5.5846207681129512e-01 1.7141773322664601e+01 3.5439461160126400e+00 1 0 0
2498 833 1 4.2380000000000001e-01 4.6106600642224773e+00 1.6660004439396573e+01 7.9548730265752987e-01 1 1 0
3408 1136 1 4.2380000000000001e-01 9.4420406561965677e+00 1.6913545984708907e+01 6.0179389863781974e-01 -2 0 2
3069 1023 1 4.2380000000000001e-01 6.5873458771753528e+00 1.1897149972792464e+01 1.4836712295290562e+00 0 0 2
1185 395 1 4.2380000000000001e-01 9.0255469762484672e+00 1.1928918217507977e+01 1.4699570427953765e+00 0 0 0
2292 764 1 4.2380000000000001e-01 9.7814559755262582e+00 1.2031895909039761e+01 3.5693112600490995e+00 -1 0 -1
1560 520 1 4.2380000000000001e-01 1.0640062287077747e+01 1.5365386935367681e+01 1.5150715778987918e+00 1 0 3
2478 826 1 4.2380000000000001e-01 6.2872681578359151e+00 1.5127866588876881e+01 4.1097992481959658e+00 0 0 1
2476 826 2 -8.4760000000000002e-01 7.1706333816693144e+00 1.4668432410463961e+01 4.0163260952463302e+00 0 0 1