LAMMPS data file via write_data, version 23 Jun 2022, timestep = 2000822

4500 atoms
2 atom types
3000 bonds
1 bond types
1500 angles
1 angle types

0.14286003903971434 36.84413996095719 xlo xhi
0.13489372667317667 36.844106273324094 ylo yhi
0.10999900052288325 36.84400099947878 zlo zhi

Masses

1 15.9994
2 1.00794

Pair Coeffs # lj/cut/tip4p/long/gpu

1 0.16275 3.16435
2 0 0

Bond Coeffs # harmonic

1 250 0.9572

Angle Coeffs # harmonic

1 60 104.52

Atoms # full

3033 1011 2 0.5242 1.9198804220306027 6.948917375351495 1.2937297962976813 3 0 0
4241 1414 2 0.5242 1.3281673955499176 5.177183921201063 36.726507036815114 1 -3 0
3602 1201 2 0.5242 5.640529284887853 8.380495903539599 1.6099324705447646 5 1 1
3603 1201 2 0.5242 5.3605693616648935 9.849911333144307 1.3767820499780363 5 1 1
4240 1414 1 -1.0484 0.5137369010575108 5.671524536434217 36.819090685011155 1 -3 0
2225 742 2 0.5242 2.714381050546373 4.6013770536477345 7.190938315210533 0 4 2
2224 742 1 -1.0484 2.7117113918196507 4.062455110524072 6.399864311906913 0 4 2
2907 969 2 0.5242 2.845877758974989 4.04286162873134 2.2468699450467144 0 0 1
2431 811 1 -1.0484 2.759470249955022 1.4861011143979763 36.80629799270037 -1 0 0
2906 969 2 0.5242 2.1257533084165496 3.0499353209716515 3.1342461986510237 0 0 1
2905 969 1 -1.0484 1.9880968154606111 3.8483537717000718 2.624520833779219 0 0 1
2433 811 2 0.5242 2.9326556854300185 0.7293450800957804 0.6322678298922585 -1 0 1
416 139 2 0.5242 4.084412685576009 1.269594870729786 5.3620355724262465 0 -1 3
417 139 2 0.5242 3.77145971382108 2.748940127858645 5.287760822223756 0 -1 3
4086 1362 2 0.5242 5.905758297152753 2.096788135755262 4.6877647956377295 1 2 3
415 139 1 -1.0484 3.896916256554299 1.973385629621047 4.7409357271232855 0 -1 3
2320 774 1 -1.0484 2.7423139777700394 0.40479326490906703 2.812058773344257 0 2 1
2322 774 2 0.5242 2.0568747632497413 0.1490334144556087 3.4293132340391876 0 2 1
621 207 2 0.5242 2.3290383604190166 5.250797719803415 5.128545319508838 -1 0 -2
2432 811 2 0.5242 3.142032155786573 2.2260917413102033 0.5437845004436189 -1 0 1
1283 428 2 0.5242 3.6941523097242634 7.136499359629096 4.331625943456068 -3 -3 2
620 207 2 0.5242 2.114012635766846 5.131720246181374 3.6347237160858996 -1 0 -2
619 207 1 -1.0484 2.2273610328082496 5.775195581477481 4.33424699931276 -1 0 -2
1780 594 1 -1.0484 4.796204874116245 1.0668592636968013 7.850357738706453 0 2 2
3191 1064 2 0.5242 3.1611245658607605 5.483151255412069 0.24978104539994125 0 1 1
4149 1383 2 0.5242 5.4830117009295405 5.143556166641791 2.6529700015273416 0 2 1
333 111 2 0.5242 10.917484488295527 2.923181389728084 5.990306481597843 1 -1 3
331 111 1 -1.0484 10.807159233676929 2.037584181787736 5.644203938662216 1 -1 3
332 111 2 0.5242 10.341547906716771 2.1595494355688314 4.816815044275719 1 -1 3
1649 550 2 0.5242 13.320040273992165 3.4483240248466394 2.0487041750321637 1 0 0
1648 550 1 -1.0484 13.381224152795856 4.18648886461761 2.655012936144134 1 0 0
2504 835 2 0.5242 11.461264021229239 6.82729260184618 1.9247967585458192 1 0 0
2505 835 2 0.5242 11.600039605325838 5.414712733578147 2.4513689308917894 1 0 0
3001 1001 1 -1.0484 6.961591460454249 4.9557418642231 4.8733075216698944 2 5 -2
3002 1001 2 0.5242 7.601829454208099 4.380874844319499 5.29266956254271 2 5 -2
3003 1001 2 0.5242 6.458157728725271 4.376979570869219 4.300743147999303 2 5 -2
4147 1383 1 -1.0484 4.8706091382163175 4.425147951166161 2.494559405450343 0 2 1
1580 527 2 0.5242 9.369327013058776 5.02636457504649 1.46696321544931 2 1 2
4148 1383 2 0.5242 5.247496084574204 3.9469795723006365 1.755944227705322 0 2 1
1581 527 2 0.5242 7.874197917699152 4.851144510761792 1.6276066375326106 2 1 2
1579 527 1 -1.0484 8.682981527203342 4.359399847825457 1.485136733703973 2 1 2
3414 1138 2 0.5242 11.851414719287979 1.0027546788868233 4.877608680606612 2 -1 -1
2691 897 2 0.5242 12.966168503121022 36.13978848855366 5.7325585191240735 1 -4 -1
1650 550 2 0.5242 13.871852744186638 3.8435198726513935 3.401937938012878 1 0 0
3413 1138 2 0.5242 12.16841180470127 0.42798440967277135 3.513398137795796 2 -1 -1
3412 1138 1 -1.0484 12.576082026931026 0.6799343364079325 4.341991840492333 2 -1 -1
2078 693 2 0.5242 17.27749080681025 2.952757709791178 5.8328107763702235 0 2 -2
1931 644 2 0.5242 14.395830456271728 6.712835748477249 2.1664897844393343 0 -3 -1
1930 644 1 -1.0484 15.217323712669941 7.16920084199261 1.9844982142463938 0 -3 -1
193 65 1 -1.0484 13.866254410872092 1.953248504410241 1.236309372841431 0 2 2
195 65 2 0.5242 14.59184819442361 1.8629004971466736 1.8540410039118818 0 2 2
670 224 1 -1.0484 16.025644117418295 0.2671582452911757 5.934030180246111 1 3 0
1238 413 2 0.5242 14.516542983527918 3.4852541766034215 5.224682345744758 1 1 2
1237 413 1 -1.0484 14.633545683776497 2.8188422397986788 4.547594487566273 1 1 2
1239 413 2 0.5242 13.91233980219156 2.2052477136438364 4.6876142851148614 1 1 2
672 224 2 0.5242 15.184304955270031 36.5716376327115 6.14517254913099 1 2 0
1933 645 1 -1.0484 17.346120421085384 3.1148689700538204 2.331410116845587 3 3 -2
1935 645 2 0.5242 17.678545300008068 3.149409611361505 3.2283728115240065 3 3 -2
1934 645 2 0.5242 16.40051896162751 3.0037284315703316 2.4300345379323733 3 3 -2
2689 897 1 -1.0484 13.162910256268322 35.67065714974384 6.54339133383457 1 -4 -1
671 224 2 0.5242 16.23304500902635 36.65504600704414 5.056546433588858 1 2 0
2041 681 1 -1.0484 10.414948114248883 3.3380469379866966 36.18605126026654 0 0 -1
2043 681 2 0.5242 10.902364267295857 4.1578295921418365 36.10466743283375 0 0 -1
194 65 2 0.5242 14.287474461011582 2.13569798918256 0.3963520073445283 0 2 2
2077 693 1 -1.0484 17.72938375658182 2.7527961558378506 5.013024261995308 0 2 -2
2079 693 2 0.5242 18.151683819639786 1.9085320738481866 5.171525554985374 0 2 -2
3058 1020 1 -1.0484 21.20109269182701 1.0883150351786233 4.3919417729690835 1 0 0
289 97 1 -1.0484 22.098432977430264 5.920875413436081 7.419843148403846 2 1 2
290 97 2 0.5242 21.617240121056085 5.322380749959401 6.848442112166599 2 1 2
291 97 2 0.5242 22.787006657213485 6.283302841236505 6.862390052319543 2 1 2
3995 1332 2 0.5242 18.51162461863975 4.484672942793198 5.163646142570785 1 -2 1
3994 1332 1 -1.0484 18.932597876234702 5.326725112624903 4.990524892037596 1 -2 1
3606 1202 2 0.5242 21.147528213094585 3.101328384320252 5.382667748157844 2 -1 -1
3604 1202 1 -1.0484 21.472098670635695 3.9701570641739727 5.619380480321978 2 -1 -1
3605 1202 2 0.5242 21.00168214660908 4.568451235749139 5.038868411896506 2 -1 -1
3593 1198 2 0.5242 21.37873498273656 4.330962275993187 1.4237670057356022 0 -2 2
3668 1223 2 0.5242 18.22030593504491 6.409114099174593 8.732235841039058 2 -5 -2
1638 546 2 0.5242 21.76077868158639 0.7919676150035788 1.1069626738420175 -1 3 1
3739 1247 1 -1.0484 24.706056327878073 5.840024010097757 1.2555380846618747 4 -4 -1
3740 1247 2 0.5242 25.27739474618275 5.468070232084747 0.5836272036116975 4 -4 -1
3741 1247 2 0.5242 25.088662253928717 5.549647173177833 2.08350865338969 4 -4 -1
3221 1074 2 0.5242 26.18258871676813 5.424385568270815 4.229870995518009 3 3 3
3220 1074 1 -1.0484 26.593039229676958 5.521244255137759 3.3705741428220786 3 3 3
3222 1074 2 0.5242 26.948885569606787 4.654318775636138 3.175496670533349 3 3 3
3586 1196 1 -1.0484 29.86399458809531 2.667488502990498 5.789616364598399 -3 -1 -2
3588 1196 2 0.5242 30.151316350869752 3.2054604566616747 5.051867112340052 -3 -1 -2
922 308 1 -1.0484 31.231932118432766 3.156284178738124 3.3030997241162523 -1 1 -2
924 308 2 0.5242 30.727400194998992 2.3429913331255734 3.2874481055214355 -1 1 -2
2827 943 1 -1.0484 29.777657760336982 0.8262261030112369 2.777072431033533 1 1 1
1002 334 2 0.5242 24.32843278266506 7.576848789061588 0.3692667474781519 0 1 3
3587 1196 2 0.5242 30.408874201933283 2.954418747110409 6.522431755304631 -3 -1 -2
2888 963 2 0.5242 28.53224740036849 1.6496818411055807 1.4345605914503172 -2 -4 0
2889 963 2 0.5242 27.304196993445647 2.5350051382024237 1.4307754214449067 -2 -4 0
4177 1393 1 -1.0484 25.856379844208927 2.5945206415864592 2.7421082179647662 0 -1 0
3985 1329 1 -1.0484 24.731006152736132 0.6864410516879069 1.3595187504767932 -1 2 0
923 308 2 0.5242 32.05002763834387 2.9227847412281496 3.741778422687274 -1 1 -2
795 265 2 0.5242 34.791354202229286 3.350209215734152 2.804171006368904 0 1 4
1065 355 2 0.5242 33.71170949304236 1.6016861123845898 2.471908941687106 1 1 1
1063 355 1 -1.0484 33.35353106232746 0.8621781563446554 1.980912710559371 1 1 1
794 265 2 0.5242 34.17681272502804 3.4458780216556146 4.184426287043867 0 1 4
793 265 1 -1.0484 34.50719292476697 2.814815037252204 3.545012872653523 0 1 4
1064 355 2 0.5242 32.83672656382805 1.2651023545078395 1.2831976309148168 1 1 1
863 288 2 0.5242 33.07783524191825 6.331128343362487 1.6427340369796517 -1 2 1
862 288 1 -1.0484 32.7128462761501 5.658477311239815 1.0677855186180834 -1 2 1
1114 372 1 -1.0484 0.25802979203794807 2.6564672409035364 0.14244018337219064 2 0 0
864 288 2 0.5242 31.76836518261331 5.701739643492379 1.2172028465624303 -1 2 1
1116 372 2 0.5242 0.4595996733790898 2.845405044862627 1.0589081273289664 2 0 0
4489 1497 1 -1.0484 33.214676903199845 4.338262724090259 5.459002816121904 -1 0 1
4491 1497 2 0.5242 32.44777113654598 4.868790363973277 5.243046452148438 -1 0 1
2829 943 2 0.5242 30.50343532467714 0.2901423678286651 2.457537733421346 1 1 1
1050 350 2 0.5242 33.87272580467388 6.065330920077386 5.544421313739582 -2 0 0
1048 350 1 -1.0484 34.0061444277553 7.003871039139406 5.4118158973763695 -2 0 0
3698 1233 2 0.5242 35.99281340263302 4.919351441083754 1.2721446186600593 -2 4 -2
3699 1233 2 0.5242 34.49641608764915 5.135680149916041 1.1952286003841859 -2 4 -2
3697 1233 1 -1.0484 35.184707479102244 4.80458493226812 1.7721796931402585 -2 4 -2
1115 372 2 0.5242 1.1009505269177802 2.7198610262269263 36.42732341200922 2 0 -1
2321 774 2 0.5242 3.389892343415741 0.8620910306748738 3.3484944837778996 0 2 1
3601 1201 1 -1.0484 5.112445995090548 9.110897415633946 1.9322409528327544 5 1 1
3032 1011 2 0.5242 2.2246024325086533 8.044509140239066 0.29435910995531805 3 0 0
606 202 2 0.5242 1.3766721771230592 10.524473642919553 36.75092954652403 1 6 1
1284 428 2 0.5242 4.497014800708495 8.227624686680874 3.655773541324369 -3 -3 2
268 90 1 -1.0484 2.9158811429773857 12.1615578584141 8.345448094788082 -1 2 3
1282 428 1 -1.0484 4.288846493911637 7.863491615480323 4.516188910782225 -3 -3 2
270 90 2 0.5242 3.3707164282415567 11.806804375504 7.581564669420451 -1 2 3
2264 755 2 0.5242 2.3903736430335396 12.734026094639193 0.6180937020262314 1 1 3
2265 755 2 0.5242 3.2326022370813385 11.478538998004323 0.6976053045302577 1 1 3
2263 755 1 -1.0484 2.374009066377886 11.79772859637401 0.41979795524996544 1 1 3
2940 980 2 0.5242 4.242916946329076 10.948533302178355 3.5533800119030814 -1 -2 1
2939 980 2 0.5242 5.714851324786205 11.219782643963093 3.32588794136912 -1 -2 1
2938 980 1 -1.0484 4.880642384754035 11.659544009119251 3.4900438071206388 -1 -2 1
4034 1345 2 0.5242 1.421080077097819 7.514877320442282 4.429617870159188 0 2 1
4033 1345 1 -1.0484 0.8662074120704774 8.212876146283728 4.081543235665204 0 2 1
604 202 1 -1.0484 1.1477070718126265 9.734523160511854 36.261241510066554 1 6 1
708 236 2 0.5242 4.630035828323184 11.096718655917474 5.351433563472565 1 -2 0
3633 1211 2 0.5242 3.399995481704732 9.494730410243926 2.3149409213593284 2 -2 0
1822 608 1 -1.0484 5.69513969304121 10.97211494648237 36.70490618576935 1 1 -3
706 236 1 -1.0484 3.9688896512574185 11.140426791940548 6.042242531323221 1 -2 0
146 49 2 0.5242 7.599428111118819 9.38434457744771 3.0448069137626343 -2 -1 0
145 49 1 -1.0484 7.666922235296855 8.48129119908838 3.354937679943542 -2 -1 0
147 49 2 0.5242 7.025102851975589 8.421972322839936 4.062603172050836 -2 -1 0
1927 643 1 -1.0484 9.867719536702305 6.679330881645991 4.577883753999126 1 -1 1
1929 643 2 0.5242 9.078186364944166 7.074698255386004 4.2083382837248 1 -1 1
2503 835 1 -1.0484 10.947561028763104 6.063848434301474 2.188431999680942 1 0 0
1928 643 2 0.5242 10.37948852900998 6.408010512271816 3.815834546081101 1 -1 1
4211 1404 2 0.5242 11.047832795983673 7.397420521360822 6.6358367285078 -1 0 -1
2567 856 2 0.5242 8.862484937843186 7.892301364274643 0.4056020084095958 0 5 1
2568 856 2 0.5242 9.049915312377978 8.0926026637163 35.65075631160179 0 5 0
3556 1186 1 -1.0484 12.167637512769854 10.94937393419581 36.76971982252888 -2 0 -1
384 128 2 0.5242 8.369592017589458 12.852123761494399 36.135839894181785 -2 5 4
382 128 1 -1.0484 7.90157226897143 12.356963407281642 36.80816046906629 -2 5 4
383 128 2 0.5242 8.500064128866672 11.648328075836925 0.31055761316340136 -2 5 5
1892 631 2 0.5242 10.321610225301395 10.50927990940728 0.3490469743490773 0 -1 0
1893 631 2 0.5242 9.676391095126643 10.678313591871824 1.7081049120252334 0 -1 0
3557 1186 2 0.5242 12.983434529332548 11.207383317137669 0.46484283285510863 -2 0 0
47 16 2 0.5242 8.145865241621904 11.22305914001411 4.142111717183327 1 -2 1
46 16 1 -1.0484 7.831378559342897 11.30387770244313 3.2416626754494313 1 -2 1
374 125 2 0.5242 11.031287017861663 10.950066673767202 3.591483566872362 1 2 2
375 125 2 0.5242 10.75363767243994 9.618794821993216 4.256724376702508 1 2 2
707 236 2 0.5242 3.324294587822964 10.47558017605161 5.7999258762825505 1 -2 0
4210 1404 1 -1.0484 11.749854766040308 7.918894780127191 7.025029619488282 -1 0 -1
1891 631 1 -1.0484 9.503905680130424 10.357472949910157 0.8229203163750269 0 -1 0
2566 856 1 -1.0484 9.04098269622934 7.416594962249306 36.32838076892622 0 5 0
1932 644 2 0.5242 15.174548550784143 7.96249347366041 2.518444424645852 0 -3 -1
401 134 2 0.5242 17.055889148265322 6.351866712092503 2.2386976406852193 3 -1 -1
4154 1385 2 0.5242 16.873965300439785 9.775700904666484 9.062254526820247 4 -4 0
4153 1385 1 -1.0484 16.67017865042712 8.951223802956724 8.620722713393173 4 -4 0
4155 1385 2 0.5242 17.519523094269974 8.617243189201476 8.332083563608833 4 -4 0
326 109 2 0.5242 18.062677473093434 8.74998329887847 4.148324375855585 2 0 -2
325 109 1 -1.0484 18.182085665094604 9.331682103462164 3.397584528082387 2 0 -2
2835 945 2 0.5242 12.206661425738076 7.556192296568309 36.348206206515115 0 -1 0
2189 730 2 0.5242 11.887376283375554 8.576732871623184 2.5216533419358362 -1 -1 -1
2190 730 2 0.5242 12.096786373955517 9.254829122188767 1.184398225684955 -1 -1 -1
2188 730 1 -1.0484 12.158873855360774 8.404755217642311 1.620013626720895 -1 -1 -1
1829 610 2 0.5242 14.40327133484972 10.340072654330951 2.8631414757891562 -1 -2 1
4173 1391 2 0.5242 18.77104629995786 7.0183575937295855 5.682994149534322 0 2 1
373 125 1 -1.0484 11.013914622412885 10.008159288262595 3.421923457942995 1 2 2
2162 721 2 0.5242 14.587658171820172 8.145525919421962 6.6470508437543705 5 -2 0
2163 721 2 0.5242 15.234219585731712 7.392138148265394 7.789978544340574 5 -2 0
2161 721 1 -1.0484 14.63138864796028 7.280642044511641 7.054855835430586 5 -2 0
1234 412 1 -1.0484 16.772785078992026 11.457803484516463 1.8412078525548585 -2 0 1
1236 412 2 0.5242 16.86641719378227 10.515372817832366 1.7022863012189773 -2 0 1
1235 412 2 0.5242 17.335785755153985 11.64683103849784 2.5919008414823823 -2 0 1
3592 1198 1 -1.0484 21.15989854749395 4.234144354801656 2.3505778266216315 0 -2 2
3996 1332 2 0.5242 18.71133212113942 5.522985300140498 4.080159680807746 1 -2 1
400 134 1 -1.0484 17.94980064894406 6.337184996879653 2.580674373867088 3 -1 -1
3594 1198 2 0.5242 22.00700886791583 4.202544996512046 2.795153005956479 0 -2 2
327 109 2 0.5242 18.71736534158689 10.05052347431154 3.733717101151092 2 0 -2
641 214 2 0.5242 22.88010743656152 7.5115347113379425 4.829685768331675 -3 -1 1
640 214 1 -1.0484 23.410782807396338 7.792434941504807 5.575152206593507 -3 -1 1
1398 466 2 0.5242 20.49810791658596 9.147592275575198 5.567126345458904 -1 1 0
1396 466 1 -1.0484 21.245274509504064 9.618867348015517 5.935749915700827 -1 1 0
4171 1391 1 -1.0484 18.590035011642023 7.937912884598393 5.8776584250619806 0 2 1
4172 1391 2 0.5242 19.055680770236325 8.105956813658906 6.696911992948332 0 2 1
3028 1010 1 -1.0484 19.585280672338808 14.240960471967265 3.773379252895483 2 1 0
3029 1010 2 0.5242 19.76508873220993 13.304964093611902 3.861816583703378 2 1 0
1069 357 1 -1.0484 20.172733256048527 11.047750655298694 3.802229938767884 0 2 2
1071 357 2 0.5242 20.556042773546444 10.947711609854808 4.673612566661605 0 2 2
2319 773 2 0.5242 22.00838813903453 8.588741337525692 2.4756600782655975 1 0 1
1029 343 2 0.5242 23.77906329224675 11.141171604666228 4.66190648830789 -1 1 0
1752 584 2 0.5242 25.412688900691695 13.42073369410634 36.780811004782805 0 0 0
642 214 2 0.5242 23.977867674358162 8.477655183785183 5.2214154319191515 -3 -1 1
2317 773 1 -1.0484 22.413050790974037 9.42871254132735 2.6923119454828086 1 0 1
1027 343 1 -1.0484 23.453155954357186 11.31342103062032 5.545284090708373 -1 1 0
1028 343 2 0.5242 22.693458557308546 10.738392519089972 5.637175847289895 -1 1 0
150 50 2 0.5242 21.27758357995839 6.112712448873274 2.3714083982188865 -1 1 1
149 50 2 0.5242 20.82138912827543 7.224407750952499 1.450571807762488 -1 1 1
402 134 2 0.5242 18.210317772330587 7.2577583912138035 2.610951859490756 3 -1 -1
186 62 2 0.5242 25.734305455576397 7.705982465282108 3.442043225262267 0 -1 0
2318 773 2 0.5242 22.441630740991947 9.902783568929646 1.861239703184234 1 0 1
2300 767 2 0.5242 24.924526659976294 11.049103124259107 7.347129865332188 -2 -1 1
184 62 1 -1.0484 25.39620099351789 8.56603841472747 3.1925829230236213 0 -1 0
185 62 2 0.5242 24.69796711839654 8.376833821004274 2.5657557653733702 0 -1 0
2010 670 2 0.5242 29.721456081984808 7.232223179830231 1.7375073900139661 0 2 2
2009 670 2 0.5242 29.030636376103267 5.988455562497439 2.254932648698879 0 2 2
2008 670 1 -1.0484 29.895810503692946 6.346804689085838 2.056688387024094 0 2 2
1351 451 1 -1.0484 27.067100606263455 7.083691935343419 35.487800122976296 1 -1 -1
1643 548 2 0.5242 28.24238275413558 9.03241537824004 4.603630277099387 -1 -2 0
1642 548 1 -1.0484 28.11190028835742 9.15781163483227 3.6636875796478487 -1 -2 0
1644 548 2 0.5242 27.161605799605468 9.145361403831028 3.5495505560718588 -1 -2 0
1521 507 2 0.5242 28.068356015124564 11.202706016650554 3.842799585548446 -2 -4 2
1519 507 1 -1.0484 28.234270285823442 12.14041257248507 3.9398592662632823 -2 -4 2
1520 507 2 0.5242 29.15644287176507 12.24641207141219 3.706184317315923 -2 -4 2
1352 451 2 0.5242 26.82965135980494 6.1645861822007095 35.364897622404015 1 -1 -1
1353 451 2 0.5242 27.991666766961306 7.1273894364705574 35.243854579892805 1 -1 -1
4487 1496 2 0.5242 30.63130695681066 5.968574837501974 3.934471203054853 -2 1 3
3233 1078 2 0.5242 32.01692048552566 8.831108936334246 5.292914215699665 0 -1 -3
3566 1189 2 0.5242 32.02636699128047 10.659707262449025 2.7587155241481556 1 -2 0
2081 694 2 0.5242 33.826879083000435 7.44389196887257 3.430126611715668 0 -2 2
4486 1496 1 -1.0484 30.88483590099638 5.810761037738327 4.843899004816832 -2 1 3
4488 1496 2 0.5242 31.126869281289697 6.67416705736391 5.178849068702511 -2 1 3
2080 694 1 -1.0484 33.93758746372018 7.767215078207792 2.536008659035402 0 -2 2
2773 925 1 -1.0484 35.635030811054335 7.987460534677503 0.17361973748740367 -1 1 3
2775 925 2 0.5242 34.9558177658631 7.7575670267374734 0.8077026428550886 -1 1 3
2082 694 2 0.5242 33.5470678448129 8.641068942113652 2.5467290556281093 0 -2 2
1463 488 2 0.5242 34.090062076139034 9.29442638525511 35.671889073951625 -2 1 -1
1444 482 1 -1.0484 31.071438672025536 12.43358689261991 3.4643898118910013 -1 4 1
3567 1189 2 0.5242 33.361040456262344 10.677686303772164 2.044403380787739 1 -2 0
3565 1189 1 -1.0484 32.68171494018043 10.084111197875728 2.3644449028676466 1 -2 0
1462 488 1 -1.0484 34.149570116656704 10.229368934073895 35.86831365171242 -2 1 -1
1464 488 2 0.5242 34.94528561193802 10.314070812751567 36.393578955798354 -2 1 -1
4035 1345 2 0.5242 36.75109968604308 7.773893379906119 3.8426986339055977 -1 2 1
2774 925 2 0.5242 36.24537963398329 7.250490184647158 0.1979296747127298 -1 1 3
605 202 2 0.5242 0.4615155762354114 9.318923156170545 36.78340917414135 1 6 1
269 90 2 0.5242 2.782933343154191 13.08639724308937 8.137509104141813 -1 2 3
2699 900 2 0.5242 6.2150663146736385 16.1207176204728 4.3103970647786145 1 1 0
2698 900 1 -1.0484 6.0019782582310475 15.188249093030695 4.346993010486146 1 1 0
2700 900 2 0.5242 6.152742889645209 14.943272811970687 5.259954505003382 1 1 0
4123 1375 1 -1.0484 3.380591468630432 18.444716161314254 4.957699184489534 1 1 -2
4125 1375 2 0.5242 3.30094665593002 18.24518321113265 4.024915992029699 1 1 -2
4124 1375 2 0.5242 2.564496748198255 18.12463568530939 5.342120843983129 1 1 -2
4396 1466 1 -1.0484 3.4426890966014714 14.189325280684303 3.7698625112859516 -3 1 2
4397 1466 2 0.5242 4.1865623321635645 14.7598814738894 3.963150689732576 -3 1 2
2687 896 2 0.5242 2.741921267261205 14.236605983979148 2.0860098123979687 0 -1 1
4398 1466 2 0.5242 3.788666197315498 13.30227944728017 3.868312352848607 -3 1 2
2412 804 2 0.5242 6.755727375351026 18.848798750846917 4.077444403904979 -1 -2 2
2411 804 2 0.5242 5.444418325406209 18.50323693262289 4.750477912637213 -1 -2 2
2410 804 1 -1.0484 6.2645633193861725 18.114622375049574 4.446204484562505 -1 -2 2
1009 337 1 -1.0484 4.318988395326695 16.66876305289464 1.2527183347963489 -2 -3 2
1011 337 2 0.5242 5.195236283600114 16.57741016990327 0.8784377015991505 -2 -3 2
2012 671 2 0.5242 0.37181960550822263 18.18375867405947 6.171235376526019 1 3 0
2477 826 2 0.5242 35.623479316528545 13.490436096933609 4.740016240720773 -1 -1 -2
2011 671 1 -1.0484 1.0101639854364166 17.49817878632788 5.974414492101752 1 3 0
2686 896 1 -1.0484 2.5116939310032964 14.484045567617736 1.190459621156493 0 -1 1
2688 896 2 0.5242 1.668748865084649 14.92984235896765 1.2738259289263254 0 -1 1
4126 1376 1 -1.0484 5.796134533362418 13.668211869376691 6.721000920932999 -1 2 0
3770 1257 2 0.5242 10.956569429061709 13.676638599205685 3.6136990478072186 -2 0 -1
3769 1257 1 -1.0484 11.106771026825257 12.830423264581512 4.035126007616405 -2 0 -1
2283 761 2 0.5242 6.916224479008705 13.638072475084476 1.6119707525603726 -1 -1 -3
2281 761 1 -1.0484 7.384263768171591 14.294855516294776 2.127544908244958 -1 -1 -3
3771 1257 2 0.5242 11.317424366356542 13.048502432292336 4.943039992211857 -2 0 -1
2282 761 2 0.5242 6.911075008579783 14.329208203565884 2.9589028506555133 -1 -1 -3
3132 1044 2 0.5242 11.22178547129981 16.736202111509037 4.034584303916041 2 2 4
2 1 2 0.5242 6.424182224421878 15.525244403075932 35.99079909190171 2 2 -1
3130 1044 1 -1.0484 12.122105484490907 16.687618540006312 4.355995412335513 2 2 4
4231 1411 1 -1.0484 9.206643348322821 16.090964826989484 5.471934686070469 0 1 -1
4232 1411 2 0.5242 8.539256439111458 15.907876399093254 4.810637178342825 0 1 -1
4233 1411 2 0.5242 8.786633324938151 16.706442194790824 6.072784562694116 0 1 -1
38 13 2 0.5242 10.410273626874242 15.699182117210153 1.4442366530386037 -2 -1 1
39 13 2 0.5242 9.348300384733303 15.106609083565424 2.345895625037284 -2 -1 1
37 13 1 -1.0484 10.279880706368202 15.324476461911399 2.3153478484135883 -2 -1 1
3131 1044 2 0.5242 12.58127173472567 16.157666508900142 3.704413607772456 2 2 4
4356 1452 2 0.5242 10.244668446321617 19.047040557464463 1.6207261188302176 0 0 0
4354 1452 1 -1.0484 11.1474717440347 18.906648381589047 1.9061685331978588 0 0 0
4127 1376 2 0.5242 4.964193327158138 13.240876066469456 6.924714920258389 -1 2 0
48 16 2 0.5242 8.187132606258377 12.138744391616594 2.9372315638447724 1 -2 1
4355 1452 2 0.5242 11.681588385570745 19.284730260783626 1.2075874693324122 0 0 0
1830 610 2 0.5242 15.54682693789961 9.875013265260359 3.739451572829747 -1 -2 1
1828 610 1 -1.0484 14.765843711159055 9.560554801522807 3.284015075672361 -1 -2 1
935 312 2 0.5242 17.46884353356249 15.508606877136387 1.6004124431219497 2 2 -1
3173 1058 2 0.5242 17.919148244005942 16.492650862910164 36.79137818765341 4 1 2
199 67 1 -1.0484 14.130113115898133 16.205533820505153 2.2995743557370902 1 2 1
201 67 2 0.5242 14.889460301243952 16.575241895052926 2.7500729925551157 1 2 1
3449 1150 2 0.5242 15.931304598761304 13.086378893301536 4.106739613006162 -1 -1 3
3450 1150 2 0.5242 16.08246429218323 14.362803441062209 3.3068584599824264 -1 -1 3
3448 1150 1 -1.0484 15.63200164403823 13.994718529347681 4.067015075536617 -1 -1 3
3653 1218 2 0.5242 17.107752699386843 16.468859876185963 4.789912575475078 3 -2 0
3652 1218 1 -1.0484 17.50155102153566 16.641243419699496 5.64516016277533 3 -2 0
200 67 2 0.5242 14.45875279255959 15.40305798630288 1.894272567573061 1 2 1
3654 1218 2 0.5242 16.759338665457005 16.843673409559862 6.214707692903651 3 -2 0
936 312 2 0.5242 18.013246869749803 14.742718084917176 2.787407655472438 2 2 -1
934 312 1 -1.0484 17.222210659697073 14.862107272805007 2.2618136288416593 2 2 -1
855 285 2 0.5242 19.874666910843477 17.258973928523467 2.143020016158414 0 2 2
3172 1058 1 -1.0484 18.690232386090205 16.811706290019497 0.5262844542115865 4 1 3
1845 615 2 0.5242 13.743612285234736 12.55645076335958 1.625682276542406 1 -2 1
3126 1042 2 0.5242 12.61635051662983 16.566340614452084 0.8984130479699554 1 -4 2
1843 615 1 -1.0484 14.06785185830761 11.836620579677856 2.1669361130393274 1 -2 1
1844 615 2 0.5242 15.016631829286858 11.9614161579773 2.188953289977766 1 -2 1
3030 1010 2 0.5242 19.058382106686395 14.457839720917637 4.542523532100334 2 1 0
591 197 2 0.5242 21.469535459640944 15.241531753186356 4.144434378102575 0 3 -2
1070 357 2 0.5242 20.826050808575353 10.677419177320667 3.208704362570067 0 2 2
3520 1174 1 -1.0484 18.51649343815179 14.1207793052296 6.292060730311702 1 4 -4
2644 882 1 -1.0484 20.021896061054722 13.48696612267426 0.6873282868083259 1 3 3
2645 882 2 0.5242 19.761556655709217 12.583218309170766 0.8653895724032217 1 3 3
589 197 1 -1.0484 22.315506731811933 14.861910691754566 3.9068172816395146 0 3 -2
853 285 1 -1.0484 20.65217166924297 17.227798248053848 2.7004752217675105 0 2 2
854 285 2 0.5242 21.182591962635662 16.520680159270867 2.3332137455089743 0 2 2
3479 1160 2 0.5242 20.047508747612483 17.403318408134716 4.131171570926672 2 1 3
3480 1160 2 0.5242 18.93118646131009 17.21364476743991 5.1360431054740685 2 1 3
3478 1160 1 -1.0484 19.837636755984395 17.51134440560258 5.058816579516304 2 1 3
4483 1495 1 -1.0484 22.58553763204614 15.875488636273294 1.327121617221969 3 -2 1
252 84 2 0.5242 19.936566137354628 19.11582245814799 5.9986537510307025 1 0 3
4485 1495 2 0.5242 22.603301656895777 15.31973476411535 0.5479786978862874 3 -2 1
590 197 2 0.5242 22.153893272963295 14.417594042526678 3.0745281680501253 0 3 -2
3522 1174 2 0.5242 17.99027554104697 14.920066910506876 6.270263672352563 1 4 -4
4484 1495 2 0.5242 23.505701492642938 15.977070328460508 1.5704773087745723 3 -2 1
2331 777 2 0.5242 24.93476601502545 18.64080767524416 4.646473340311746 0 0 0
2329 777 1 -1.0484 25.475978659584253 18.41939382263098 5.404303579340098 0 0 0
2083 695 1 -1.0484 25.227016933267365 16.48741916505429 1.125751807804426 1 1 2
2084 695 2 0.5242 25.813750398432507 16.776073196081953 1.8247967689421176 1 1 2
2330 777 2 0.5242 25.922028804208516 17.61073188676634 5.152612954786756 0 0 0
2530 844 1 -1.0484 26.803378657155882 13.473809789333975 1.6260204170104104 1 -3 -1
2532 844 2 0.5242 27.05994393724363 14.381903064642728 1.7865891265958675 1 -3 -1
2531 844 2 0.5242 27.247725289726926 12.974185917974836 2.3109828955987948 1 -3 -1
2299 767 1 -1.0484 25.40691728608347 11.830405546916577 7.617512865037819 -2 -1 1
520 174 1 -1.0484 26.837760425326955 13.391210905608661 5.7101399045252 -2 2 -2
521 174 2 0.5242 27.364564985021378 12.885139347386023 5.091585253576488 -2 2 -2
3498 1166 2 0.5242 28.651782273750705 15.339280566213967 3.503367578014371 1 -1 1
522 174 2 0.5242 26.33487424048894 12.733871891466064 6.191027717140657 -2 2 -2
2653 885 1 -1.0484 25.245011342665922 15.739296724714865 4.889911982016893 -2 -4 0
2655 885 2 0.5242 24.430586043352605 15.295212329330107 4.653813905893613 -2 -4 0
2654 885 2 0.5242 25.809015150487944 15.043126948779365 5.226793079347337 -2 -4 0
3497 1166 2 0.5242 29.346108163031417 15.574517571211388 2.1787944465624407 1 -1 1
424 142 1 -1.0484 27.221066496336068 18.438471408900504 2.8511622477159255 -1 -2 2
425 142 2 0.5242 27.61390443447926 17.58335474591942 3.0263647939624096 -1 -2 2
426 142 2 0.5242 27.262676768428673 18.89805104086211 3.6897903408879733 -1 -2 2
3496 1166 1 -1.0484 28.50580424459244 15.686379388455657 2.6233365437300225 1 -1 1
2051 684 2 0.5242 30.964133556752273 15.87132526184256 35.94158480480012 -2 -1 0
4163 1388 2 0.5242 28.449524450187837 13.668897155390397 36.04542238064886 -3 -3 -1
4257 1419 2 0.5242 26.522229341796375 20.12868174203468 2.263047187612 -3 2 1
2050 684 1 -1.0484 31.047218242306005 16.106843064312216 0.13163348352553328 -2 -1 1
2085 695 2 0.5242 25.794517057717574 16.38979050821532 0.3611252841959623 1 1 2
4162 1388 1 -1.0484 28.988493693820903 13.065113355809013 35.53434577414141 -3 -3 -1
4413 1471 2 0.5242 24.94584874707798 15.167166401291265 34.81609081604083 1 -1 -2
1776 592 2 0.5242 31.806124062766393 14.977410178941385 5.1272715699476175 -1 -3 0
1774 592 1 -1.0484 32.50817259106759 14.456938887329619 5.517756755637756 -1 -3 0
1775 592 2 0.5242 32.183580615720956 14.231898937226603 6.389673315379368 -1 -3 0
3682 1228 1 -1.0484 35.656737441542106 15.564451849636887 5.764498540231688 1 -2 4
3684 1228 2 0.5242 34.76143225565092 15.879770860178727 5.641031731468461 1 -2 4
834 278 2 0.5242 29.904642822595275 16.633073360874782 5.120288557130757 -1 0 -2
2052 684 2 0.5242 31.51868317145379 16.939864489857996 0.12552467817269022 -2 -1 1
4468 1490 1 -1.0484 35.708774263384214 14.231432527919168 8.566910342993628 0 -3 1
2478 826 2 0.5242 34.11137875314583 13.52123811650363 4.672769972027179 -1 -1 -2
36 12 2 0.5242 32.68757334205402 15.36807734644632 2.7772996253286464 2 -3 0
34 12 1 -1.0484 32.450306966368075 14.626569418053668 2.22042285456163 2 -3 0
35 12 2 0.5242 31.973251651940448 15.01868333648683 1.489050179046109 2 -3 0
3253 1085 1 -1.0484 33.11592763083361 16.987998666058406 3.287590170472115 -1 1 1