LAMMPS data file via write_data, version 23 Jun 2022, timestep = 2000822

4500 atoms
2 atom types
3000 bonds
1 bond types
1500 angles
1 angle types

0.5850380047403014 36.40196199525036 xlo xhi
0.5771672648391437 36.40183273515233 ylo yhi
0.5525712026491014 36.4014287973427 zlo zhi

Masses

1 15.9994
2 1.00794

Pair Coeffs # lj/cut/tip4p/long/gpu

1 0.16275 3.16435
2 0 0

Bond Coeffs # harmonic

1 250 0.9572

Angle Coeffs # harmonic

1 60 104.52

Atoms # full

3669 1223 2 0.5242 3.3705000163613787 5.538311151095031 3.0461998497353098 1 -1 2
3667 1223 1 -1.0484 2.797926054517667 5.567660446893275 3.8127170553877883 1 -1 2
3668 1223 2 0.5242 3.3678061497421856 5.338524583350637 4.546873256556543 1 -1 2
2581 861 1 -1.0484 4.856137072800055 5.045009528395285 5.657524501871094 0 1 1
1699 567 1 -1.0484 4.380588077918569 4.674764964179841 0.5582867967701958 1 -1 1
3498 1166 2 0.5242 1.4214364357006661 1.8779874381397803 6.349175220924439 3 2 1
1701 567 2 0.5242 5.214038404036374 4.286096711195238 0.8238960484439914 1 -1 1
4184 1395 2 0.5242 1.3249675336260405 4.341212127513137 3.565430052237111 1 0 2
16 6 1 -1.0484 3.1690442506321745 1.7526401337283601 3.307696119153317 1 2 -1
1719 573 2 0.5242 2.8013391021755005 7.687112852058866 2.0542147544060736 0 -2 0
1700 567 2 0.5242 3.8149359856729115 3.92541747635013 36.22068592866346 1 -1 0
2999 1000 2 0.5242 4.493242069665127 6.264540554016107 1.4538687512260884 1 1 1
2528 843 2 0.5242 6.023729996712685 0.7516500518437859 5.275654087185735 0 0 1
2064 688 2 0.5242 5.12763898515236 2.4949564206087835 6.53112166889721 1 1 0
17 6 2 0.5242 3.542839648302 2.012732359549042 4.1496460659315755 1 2 -1
1360 454 1 -1.0484 2.9946465897152565 2.220248188249083 36.39489853441197 1 0 0
1362 454 2 0.5242 3.086888634834395 2.232551166116466 1.498716511925194 1 0 1
3675 1225 2 0.5242 1.66809599704709 1.375294675815758 4.230977869379201 1 -1 2
1717 573 1 -1.0484 1.9875472085648405 8.072333305483259 1.7292552888797494 0 -2 0
2063 688 2 0.5242 3.6273952703070065 2.3219176433745092 6.424967535866655 1 1 0
2062 688 1 -1.0484 4.404577650879433 2.5255965084907133 5.904628078169001 1 1 0
18 6 2 0.5242 3.528442550007707 0.8805662820001823 3.1446908545726444 1 2 -1
2499 833 2 0.5242 4.23329576509949 35.332246812849974 1.30450179005224 0 -1 1
2529 843 2 0.5242 6.8232171029996005 0.7327499392368848 3.9901944839909667 0 0 1
667 223 1 -1.0484 6.830224735097165 3.7086102275024113 1.0506494239795856 0 1 1
2766 922 2 0.5242 7.242502103430408 2.8771770020712113 6.8550702066090485 1 -2 0
1932 644 2 0.5242 7.297231888239734 2.472960873426742 2.31611469412273 1 1 2
1930 644 1 -1.0484 7.768268085405022 1.8681382547046252 2.8893207609471196 1 1 2
1748 583 2 0.5242 8.076438798819812 2.5912155621134794 4.5036186919168095 0 1 0
15 5 2 0.5242 10.590427814222162 4.651392527306313 3.6556894791533043 0 1 2
13 5 1 -1.0484 11.514484485370518 4.417545662380984 3.5680218521526146 0 1 2
14 5 2 0.5242 11.810745557685168 4.269211290214666 4.466062488369481 0 1 2
1749 583 2 0.5242 8.565903628506653 3.7619306210863748 5.329326104991214 0 1 0
1747 583 1 -1.0484 8.16205399987232 2.8975183847884196 5.406447207148991 0 1 0
2771 924 2 0.5242 10.221179914247296 0.9353729545917402 6.884397891599662 1 0 -2
2770 924 1 -1.0484 9.345109509786244 1.0270339341312302 7.259031983936227 1 0 -2
2772 924 2 0.5242 8.907703667990004 1.6636048989387116 6.693607417612563 1 0 -2
302 101 2 0.5242 11.626826997769408 3.190233602617478 2.097161230386426 0 -1 2
1931 644 2 0.5242 8.42242982792399 1.4601246475259748 2.3220042669180208 1 1 2
303 101 2 0.5242 12.575602561657014 2.038193208690973 1.8430515856922305 0 -1 2
1092 364 2 0.5242 12.312256372164946 5.72735184654072 2.384844683581493 2 1 1
3550 1184 1 -1.0484 11.765009336800045 0.8435251263066033 5.94415287532015 0 1 0
3552 1184 2 0.5242 12.448723537302834 1.464183334891592 5.692024026543618 0 1 0
3294 1098 2 0.5242 10.559423520878342 1.3171467480962267 1.504760521251073 0 1 0
3292 1098 1 -1.0484 9.840998154360749 0.6846016755953306 1.5063289882541895 0 1 0
301 101 1 -1.0484 11.762789587298073 2.4331386500093597 1.5274482962240872 0 -1 2
1387 463 1 -1.0484 8.897068254924399 5.215856958713916 4.141613096059391 0 1 1
3500 1167 2 0.5242 12.617353142647929 6.178564015085111 5.572505313103097 1 0 0
3501 1167 2 0.5242 12.542772732541106 6.922136253897528 4.255888100688529 1 0 0
3499 1167 1 -1.0484 12.896950236157597 6.986914545272126 5.142800128134677 1 0 0
1091 364 2 0.5242 13.720769995524739 6.2823077335593105 2.3923051232941743 2 1 1
3884 1295 2 0.5242 15.918076267883647 3.1404800491883305 3.535902909568826 -1 0 -1
3885 1295 2 0.5242 16.985211276784785 3.602405092408044 2.566474509527963 -1 0 -1
3883 1295 1 -1.0484 16.4506201307261 3.900792083696701 3.302293246284797 -1 0 -1
3226 1076 1 -1.0484 12.001969075441679 4.635487284977786 6.282484346231155 0 0 0
3227 1076 2 0.5242 12.73795363632527 4.2625456984160355 6.767759835090761 0 0 0
3228 1076 2 0.5242 11.363142970887473 4.867721175356158 6.956442392087065 0 0 0
4319 1440 2 0.5242 16.936469739608405 3.8984781295027964 5.430604878983656 -1 0 1
4318 1440 1 -1.0484 17.599383607900013 3.5923026079760896 6.049517608538095 -1 0 1
4320 1440 2 0.5242 18.4003388587636 3.525361778281163 5.529670583021543 -1 0 1
4091 1364 2 0.5242 17.434601724426066 1.9639594186907832 6.797198066601501 1 0 -1
713 238 2 0.5242 15.446984343523258 6.754455268730826 3.6337677705282045 0 1 1
712 238 1 -1.0484 15.340537954122949 6.314299863659341 2.790451044883822 0 1 1
714 238 2 0.5242 15.743038354956226 5.454918909273984 2.915784784683963 0 1 1
3033 1011 2 0.5242 14.486632060962318 1.5726791720878253 3.9236847818948344 1 1 0
3031 1011 1 -1.0484 14.525382694300658 1.891592013282543 4.825374402165302 1 1 0
2537 846 2 0.5242 18.43764851328046 2.7020270676562803 0.7781498067808588 1 2 1
2536 846 1 -1.0484 17.80095706008171 3.4048696695309446 0.9081043026843656 1 2 1
3708 1236 2 0.5242 18.72116526038732 1.1635168057182752 3.8198242380379117 1 1 0
4090 1364 1 -1.0484 17.19886824981325 1.223643773200536 7.356316302103082 1 0 -1
2083 695 1 -1.0484 14.126983157918945 1.2804759337310274 1.8906075835449319 0 1 0
4161 1387 2 0.5242 20.49655466356795 2.615330562127664 5.623605365738245 1 0 -1
4159 1387 1 -1.0484 19.92335915681412 2.4460691844392155 4.875910112432487 1 0 -1
72 24 2 0.5242 21.19829363712896 4.765795918081797 3.14617183751378 1 1 0
70 24 1 -1.0484 21.102601432615224 3.8422980072666446 2.913262181873711 1 1 0
71 24 2 0.5242 21.992653356682546 3.492016276613966 2.9501570881921895 1 1 0
4160 1387 2 0.5242 20.22492625360732 3.053138460192897 4.20005888308742 1 0 -1
2425 809 1 -1.0484 24.241911857394154 36.19191951863415 4.181175828901482 -1 0 1
2426 809 2 0.5242 23.295394988530465 36.31785034375508 4.24824253790063 -1 0 1
2427 809 2 0.5242 24.504735203767606 35.88166443903201 5.0477301294225985 -1 0 1
915 305 2 0.5242 21.632718930200692 3.658500299843988 6.991232197241092 -1 -2 0
914 305 2 0.5242 21.99473059570125 2.326866114612943 7.613842114960365 -1 -2 0
913 305 1 -1.0484 21.283324804777024 2.7846302601726527 7.1659521023484 -1 -2 0
1245 415 2 0.5242 20.810423710585987 0.9104952237524915 4.382763494388998 0 1 1
1295 432 2 0.5242 23.470752320141916 4.563943094734925 6.197834102789206 -1 0 1
1243 415 1 -1.0484 21.536974275056835 36.3577846844737 3.886816359676927 0 0 1
142 48 1 -1.0484 23.96492619761834 3.304481939243885 2.0102669576387986 -2 3 1
144 48 2 0.5242 24.413931652192684 2.689646447311691 1.4300748032780426 -2 3 1
2301 767 2 0.5242 25.159343792463552 3.109919661375864 4.8358192474187 0 0 0
2300 767 2 0.5242 24.986372074753984 1.8421762930785723 4.026591292990277 0 0 0
2299 767 1 -1.0484 25.492298072912007 2.6539490372681205 4.062849054180207 0 0 0
2053 685 1 -1.0484 27.879467661152862 3.635088475519705 3.4942079193147784 1 0 2
2054 685 2 0.5242 27.57919651369243 4.535070320936803 3.6211747895309987 1 0 2
2055 685 2 0.5242 27.0763446412275 3.114645676732645 3.4746275211697677 1 0 2
1340 447 2 0.5242 28.95667641562734 3.288476162138427 1.9627115442673158 0 1 0
1339 447 1 -1.0484 29.181802767212673 2.5875390968667475 1.3509460849103812 0 1 0
2914 972 1 -1.0484 28.715702321571978 0.5900670736513325 3.0959526405127016 0 1 0
2916 972 2 0.5242 28.70367833268574 1.276883949118715 2.4293277879835578 0 1 0
1300 434 1 -1.0484 27.314903753451226 36.265794811589174 5.8313944701016185 0 -1 -1
1301 434 2 0.5242 26.79641858621862 0.9975512886265299 5.25017272995218 0 0 -1
1294 432 1 -1.0484 24.402088231302265 4.376684888854264 6.0803629775476455 -1 0 1
4409 1470 2 0.5242 29.43027835371891 5.833459650676288 3.884885000041308 0 0 1
4408 1470 1 -1.0484 30.142312600354064 5.586563141182257 4.47505472969596 0 0 1
1067 356 2 0.5242 29.539822184888152 4.408988480482201 6.0117245597032225 -1 0 0
4410 1470 2 0.5242 30.578728320909466 6.412640433268091 4.683355287516135 0 0 1
129 43 2 0.5242 30.94707806388531 1.7271495857190176 1.1618896568079733 0 1 0
1302 434 2 0.5242 27.894753524245903 35.78030900087806 5.244598793392384 0 -1 -1
3114 1038 2 0.5242 29.539927497275126 1.4158219399028005 4.383210159895704 0 1 1
1296 432 2 0.5242 24.76815816410014 4.41631716232148 6.963920285289925 -1 0 1
143 48 2 0.5242 24.482452921613056 3.296220102680589 2.8154687628857147 -2 3 1
813 271 2 0.5242 28.150581218561882 6.042897605929617 1.0924993795906948 -1 0 0
3860 1287 2 0.5242 33.47369242124029 4.925914138097453 2.2944186006254528 -2 0 0
2859 953 2 0.5242 33.18517500873939 2.3743482831758094 1.5967323749187607 -1 0 -1
2857 953 1 -1.0484 33.59204505687444 2.8781962275206703 2.301605167685507 -1 0 -1
3113 1038 2 0.5242 30.567484951869233 2.417891422938414 4.864801328017968 0 1 1
3674 1225 2 0.5242 36.39773066492158 2.4235355343166045 4.335549853923591 0 -1 2
3673 1225 1 -1.0484 0.8769087937940947 1.5989705888257482 4.721123366919323 1 -1 2
2181 727 2 0.5242 32.52587261918278 3.1800501971532986 3.8870584858201567 0 2 2
4332 1444 2 0.5242 34.80145045596214 1.429468181746377 5.190731289664682 -1 1 2
2179 727 1 -1.0484 31.94878214384355 3.4707434221264317 4.593256545025503 0 2 2
4183 1395 1 -1.0484 36.26899530731525 3.9700909417411068 3.4366928567011104 0 0 2
4185 1395 2 0.5242 35.67260377263031 4.705972637583894 3.574701249796134 0 0 2
2180 727 2 0.5242 31.56064262373517 4.282686894838504 4.2671475403791135 0 2 2
350 117 2 0.5242 36.33652091936986 6.686176543228036 0.9531495225329782 0 1 1
351 117 2 0.5242 34.99541724270783 6.197147850980105 1.4573672300260292 0 1 1
127 43 1 -1.0484 31.72514168793865 1.3255759358515466 0.775099925859221 0 1 0
2858 953 2 0.5242 34.5002700122763 2.57640594852612 2.318979023053135 -1 0 -1
128 43 2 0.5242 31.97752081790454 0.6432930185436693 1.397229709689845 0 1 0
3859 1287 1 -1.0484 33.28823739142929 5.863632670810506 2.243997361544253 -2 0 0
3861 1287 2 0.5242 32.48254162751124 5.921651984154445 1.7304420422002127 -2 0 0
3112 1038 1 -1.0484 30.11635985577145 1.6135812964886325 5.121362902423783 0 1 1
1998 666 2 0.5242 33.08471062851443 3.4429550469215937 5.8809592202073295 1 1 1
4403 1468 2 0.5242 35.749875653388955 1.6334906896895554 0.9093226266316559 0 1 1
995 332 2 0.5242 3.4874679928258154 8.504368086273153 4.871652752471392 -1 -1 0
994 332 1 -1.0484 4.301249759655101 8.498922828944478 4.367688040254958 -1 -1 0
3000 1000 2 0.5242 4.867646805633536 6.911465173626596 2.770399981890705 1 1 1
996 332 2 0.5242 4.822188003284367 9.207592218540896 4.745394669363933 -1 -1 0
2998 1000 1 -1.0484 4.497003653039785 7.106276062741059 1.9096309337006363 1 1 1
4311 1437 2 0.5242 2.7467493960055434 13.082009328857565 5.245156550380816 1 1 0
1036 346 1 -1.0484 1.6129776987401803 8.640264687294378 5.896804994207152 -1 1 2
1664 555 2 0.5242 6.61588893501713 10.498242070913095 6.3486177764059635 1 1 0
1037 346 2 0.5242 0.8410847184589572 9.125119130458225 5.604659855397066 -1 1 2
3261 1087 2 0.5242 3.874562425928356 10.643370201214212 1.9614696967486613 2 0 1
3260 1087 2 0.5242 3.682338886120571 9.812024301139667 3.2120123869949073 2 0 1
1663 555 1 -1.0484 5.74500808383525 10.767737987703725 6.056745081219953 1 1 0
3259 1087 1 -1.0484 3.745154741463261 10.717166953718122 2.9070164479764706 2 0 1
48 16 2 0.5242 2.5206778647682273 11.754380644703915 3.7267471643812575 -1 -3 1
46 16 1 -1.0484 1.715205094657622 12.222982897756516 3.9455535745950927 -1 -3 1
545 182 2 0.5242 5.837108293438271 8.199601540626038 1.356335840860543 1 1 1
1718 573 2 0.5242 2.192195757872405 8.346988794665435 0.8354241987146456 0 -2 0
47 16 2 0.5242 1.373376200211131 12.519499605972927 3.1020599307987533 -1 -3 1
2634 878 2 0.5242 36.20306574449761 9.200775509042844 1.888564270703376 -1 2 1
345 115 2 0.5242 6.977680279957966 6.411265352548384 5.885908507169058 1 1 1
343 115 1 -1.0484 7.753267040694013 6.944282526740006 6.06086215775914 1 1 1
1388 463 2 0.5242 8.718289418674754 6.013180700527374 4.640174695413286 0 1 1
544 182 1 -1.0484 6.775439676000499 8.273362171704157 1.1821365130272887 1 1 1
1389 463 2 0.5242 8.552892630197121 5.397418002423174 3.2670678142303142 0 1 1
4486 1496 1 -1.0484 8.228843471731688 6.135768129928421 1.8139119881105943 -1 -1 1
4488 1496 2 0.5242 7.599371311773246 6.800200397388392 1.5336527128887698 -1 -1 1
3043 1015 1 -1.0484 9.842139428699397 11.442018950588135 4.602383962601551 1 0 1
3045 1015 2 0.5242 10.681165700013498 11.42806028990394 5.062917762057832 1 0 1
3044 1015 2 0.5242 9.65483140178954 12.371764797088508 4.472998991232993 1 0 1
1690 564 1 -1.0484 8.71613522827184 9.816077453724784 2.2787622626755577 0 1 1
1692 564 2 0.5242 8.799266724970398 9.749221426870148 3.2300089189903196 0 1 1
3219 1073 2 0.5242 12.64880237596849 10.752006897419324 2.4192699031163203 0 2 0
1691 564 2 0.5242 7.9912391512572665 9.230679452365859 2.0594749472113705 0 1 1
2254 752 1 -1.0484 12.22649008633433 11.699329470913975 6.134078669055024 -1 1 0
2255 752 2 0.5242 12.938090158001625 11.134118559327028 5.833391792818119 -1 1 0
3291 1097 2 0.5242 8.773440699222899 11.48270240937346 1.7461854124186402 0 -2 1
1665 555 2 0.5242 5.883668693254716 11.619350672172619 5.642281168963433 1 1 0
344 115 2 0.5242 7.741999708746066 7.0807001547796045 7.008234599142453 1 1 1
4487 1496 2 0.5242 8.943784491087076 6.200263862402085 1.1807056074236724 -1 -1 1
4166 1389 2 0.5242 11.339947732526648 9.319922997495883 36.3603569082957 2 1 0
1090 364 1 -1.0484 12.827264005802867 6.488794136429263 2.1179674696584008 2 1 1
1545 515 2 0.5242 15.789020992218138 7.694023130184698 5.2516976091788745 1 0 1
1543 515 1 -1.0484 16.294095628215416 6.880944735579364 5.25905343839867 1 0 1
1544 515 2 0.5242 17.122592707314944 7.109252078487091 4.837485150729731 1 0 1
2561 854 2 0.5242 13.670470200142601 9.326131730152794 0.8578074690912154 1 1 1
2560 854 1 -1.0484 13.016878288630434 9.120098911062497 1.5261040333289604 1 1 1
3217 1073 1 -1.0484 12.850848914845285 11.334912299423099 3.1511504623898974 0 2 0
2562 854 2 0.5242 13.10439353563803 8.177025681581945 1.6646889818439272 1 1 1
3218 1073 2 0.5242 13.42167751369122 12.004462801911282 2.7741789813582276 0 2 0
2417 806 2 0.5242 14.450188087830231 9.68495468010206 3.6152348924354083 0 0 -2
2416 806 1 -1.0484 15.375352429991347 9.571394952253632 3.833010787375973 0 0 -2
2418 806 2 0.5242 15.843761420052402 9.868722073648284 3.052984037324738 0 0 -2
2588 863 2 0.5242 15.28524188171181 12.147623464753153 5.474409590192965 1 -1 0
1823 608 2 0.5242 16.735274351960417 11.132069796854072 1.1866002331747407 1 0 1
1822 608 1 -1.0484 16.915204309583604 10.877848296907013 2.091723049865937 1 0 1
1824 608 2 0.5242 17.355835554845413 11.63804853624128 2.471447151411584 1 0 1
3145 1049 1 -1.0484 14.429362813120159 9.758687858626669 35.16692090880045 -1 0 0
2587 863 1 -1.0484 15.457101457038169 11.292111368663807 5.867873708049466 1 -1 0
2589 863 2 0.5242 15.453751974368979 10.68323327295819 5.129289287322361 1 -1 0
329 110 2 0.5242 18.19339389172237 9.980773026255626 1.9146065683076046 -2 0 1
1466 489 2 0.5242 18.10979569503627 12.563598313849141 6.432146813995456 1 1 0
402 134 2 0.5242 16.4516334947487 7.207562638734786 1.3148997856222775 0 0 0
2006 669 2 0.5242 18.821317087586888 8.404500159082978 4.810498483613739 0 0 0
1297 433 1 -1.0484 21.830133864762672 5.287393196159387 6.265491982220177 0 0 1
2005 669 1 -1.0484 18.868017622609024 7.773143844585949 4.092542976676436 0 0 0
1298 433 2 0.5242 21.585345131582624 5.762727734065994 5.471523294027483 0 0 1
3097 1033 1 -1.0484 21.067043348584075 6.270400500724662 4.018473275343252 2 1 -1
3099 1033 2 0.5242 20.248531500347585 6.766662666728413 4.014875688682666 2 1 -1
2007 669 2 0.5242 18.658021605138007 8.283294035725891 3.310302461307791 0 0 0
3098 1033 2 0.5242 21.6267670244947 6.726123753204346 3.389763163507323 2 1 -1
1189 397 1 -1.0484 22.09239736115044 7.828416275745402 2.059205324682594 0 1 1
1732 578 1 -1.0484 21.859270633857598 10.299842999576354 3.1472098234794927 -1 0 -1
1733 578 2 0.5242 21.34348745007184 10.823976187278678 2.534425838327426 -1 0 -1
2717 906 2 0.5242 21.337518714258664 9.7511204620528 5.138234967669291 0 0 0
1734 578 2 0.5242 22.37359012894392 10.941083639418581 3.6376564082762592 -1 0 -1
2716 906 1 -1.0484 21.39913059700751 9.58893741767481 6.079591369879211 0 0 0
1191 397 2 0.5242 21.994786036389215 8.655355811519872 2.5313215321379046 0 1 1
2718 906 2 0.5242 20.498866415472754 9.665373277560523 6.39571352420962 0 0 0
330 110 2 0.5242 19.62137903027288 9.731529943771989 1.4779388939524356 -2 0 1
328 110 1 -1.0484 18.856828344330093 9.293612786585983 1.8520264313989112 -2 0 1
401 134 2 0.5242 17.656863361213592 8.110040109037133 1.1571042076542557 0 0 0
1793 598 2 0.5242 24.942135166143963 9.838494933419224 6.756505394891992 0 1 1
3010 1004 1 -1.0484 27.2047403683397 6.539180322952336 3.4915903837366677 0 2 1
3011 1004 2 0.5242 26.839984408171034 6.7824959736076424 4.342473048950506 0 2 1
3012 1004 2 0.5242 27.628285319075363 7.337076825475612 3.175012519724824 0 2 1
589 197 1 -1.0484 25.08613576372559 7.589736803696297 2.15724779496254 2 1 0
1476 492 2 0.5242 26.314022417369706 11.722032494612542 5.326942662676048 -1 2 1
930 310 2 0.5242 25.155922696809075 9.476493935833979 2.5167684255771414 0 0 -2
1474 492 1 -1.0484 25.54515673581212 11.174284856648107 5.168611456329776 -1 2 1
1475 492 2 0.5242 25.671187817642206 10.834025542156372 4.2828403380006055 -1 2 1
928 310 1 -1.0484 25.56324132483715 10.315599517773162 2.731814074391012 0 0 -2
929 310 2 0.5242 25.246265883130366 10.9161307141115 2.0571736601409834 0 0 -2
2519 840 2 0.5242 28.911505263644823 9.313378740175661 2.228464710743374 -1 2 2
2518 840 1 -1.0484 28.177296222093666 9.065525899014498 2.790387799666208 -1 2 2
2520 840 2 0.5242 27.47615615277835 9.671341405026155 2.5503020852290863 -1 2 2
3089 1030 2 0.5242 25.958697007184572 7.6826430468736895 6.370827539145134 -1 -1 0
1202 401 2 0.5242 28.059316632648343 8.057642422430607 5.8047991351210335 -2 0 2
1201 401 1 -1.0484 28.801721319807132 8.647481247520412 5.673738910442854 -2 0 2
3618 1206 2 0.5242 23.89243515498152 12.169646283918183 5.024369235595212 1 0 1
1203 401 2 0.5242 28.67334976742744 9.003126940647748 4.794370865719844 -2 0 2
610 204 1 -1.0484 30.440194600189336 12.096553436544328 4.389328614357316 -1 0 2
611 204 2 0.5242 30.464688888049555 12.061323654044662 3.4330807654258773 -1 0 2
612 204 2 0.5242 31.126648472853113 11.491107506328941 4.669448724122415 -1 0 2
759 253 2 0.5242 35.964171149062494 7.07197323429147 4.549233354544517 -1 0 0
757 253 1 -1.0484 35.1968929383423 6.666688836062966 4.953312005413292 -1 0 0
4433 1478 2 0.5242 32.861680107337165 7.032411001211575 4.015607262816724 -1 0 0
3361 1121 1 -1.0484 35.22327512528682 10.288490195151764 4.470286700515722 -1 -1 1
3363 1121 2 0.5242 35.60943731966202 10.248380794066641 3.595346209135097 -1 -1 1
3914 1305 2 0.5242 33.84076613335871 10.819117706619155 2.0946578856683304 1 1 1
3913 1305 1 -1.0484 33.01526857163954 11.109339593766629 2.482699815547963 1 1 1
3915 1305 2 0.5242 33.14092634601249 10.998248300922715 3.4251011129986746 1 1 1
4434 1478 2 0.5242 32.030057868724164 8.049250244289599 3.2630216365617133 -1 0 0
4432 1478 1 -1.0484 32.03924654309671 7.520087786058599 4.06061418128289 -1 0 0
3362 1121 2 0.5242 35.225632501975326 11.219859778230925 4.691186241778981 -1 -1 1
2632 878 1 -1.0484 35.576513793655195 9.877302756576414 1.6316693963869267 -1 2 1
1454 485 2 0.5242 31.39039947856393 9.779860304158577 1.892410789979554 -1 2 0
2633 878 2 0.5242 36.10574640464621 10.668397113492055 1.5300128892701679 -1 2 1
983 328 2 0.5242 31.710846996452993 12.282744100652604 1.8946014811037444 1 0 -1
636 212 2 0.5242 32.032024262298606 9.11597478577034 4.660128959193976 -1 0 0
634 212 1 -1.0484 32.44058519445021 9.922644774565738 4.974154754363399 -1 0 0
982 328 1 -1.0484 30.95372381850819 12.800968263944737 1.6217272879841527 1 0 -1
1213 405 1 -1.0484 34.05162616257306 13.291991679525795 36.128294086666514 0 0 0
3950 1317 2 0.5242 35.471672491598255 12.222505442691428 6.515957368311293 -1 1 1
3949 1317 1 -1.0484 34.878289893261524 12.667986920789444 5.911230944307387 -1 1 1
635 212 2 0.5242 33.350530489053085 9.679893249321179 5.145391354588052 -1 0 0
4309 1437 1 -1.0484 3.5291923851417986 13.24394752031493 5.772233093044925 1 1 0
4310 1437 2 0.5242 3.69901066168887 14.180224148054098 5.668317262173718 1 1 0
3959 1320 2 0.5242 5.005944532346797 13.052373606012498 4.508625066766809 1 -1 0
2980 994 1 -1.0484 0.6941903060132982 12.70412131767677 1.47422295792139 2 1 0
2981 994 2 0.5242 1.351337247167331 13.03769390131579 0.863372791311789 2 1 0
1220 407 2 0.5242 35.860134141269896 15.06124990271643 2.5305185634175036 1 1 1
3351 1117 2 0.5242 1.916597457601039 15.780135114840864 4.92397417142814 -1 0 1
3998 1333 2 0.5242 4.333352152969852 15.896072773755664 2.3809501180299564 1 0 0
3997 1333 1 -1.0484 4.136560479889363 15.421889705325823 1.573067477035578 1 0 0
3999 1333 2 0.5242 4.721156981119198 14.66414687841655 1.5910712780957992 1 0 0
1606 536 1 -1.0484 4.912946646958284 17.20462288872193 4.1445983300777955 0 -1 1
1608 536 2 0.5242 5.8423533817599225 17.433146865587887 4.159785349482817 0 -1 1
1607 536 2 0.5242 4.466327527464948 18.02868955062284 3.9504432935538807 0 -1 1
3349 1117 1 -1.0484 2.734073735382722 15.892341140079958 5.409148171734279 -1 0 1
3958 1320 1 -1.0484 5.793583472548318 12.82951565117594 4.012428958889108 1 -1 0
3960 1320 2 0.5242 5.479128178624686 12.271986531719538 3.3007195588719025 1 -1 0
2982 994 2 0.5242 35.76624497945717 13.296640191905485 1.3725285069230624 1 1 0
3350 1117 2 0.5242 3.2712428175691066 16.45179871130457 4.8481596603260355 -1 0 1
2543 848 2 0.5242 4.249893292962412 16.73814890537953 6.621120751673993 -1 0 2
2256 752 2 0.5242 12.492292796398136 12.580424630098847 5.8708849590614465 -1 1 0
272 91 2 0.5242 9.826608925432044 18.385351357705808 1.8629548056580654 -1 0 0
3755 1252 2 0.5242 7.5743150874722955 13.359222579391975 3.964294646474011 -1 1 1
3754 1252 1 -1.0484 8.407950766602848 13.757279699924116 4.2150009674283675 -1 1 1
271 91 1 -1.0484 9.79992047243457 18.015952417766453 2.7456118393262816 -1 0 0
177 59 2 0.5242 11.175937102497917 15.906751880401965 4.602525521191372 -1 1 1
175 59 1 -1.0484 11.186726790822693 15.584734536010838 3.7011712559208245 -1 1 1
176 59 2 0.5242 10.421619002147525 15.989545842427809 3.2925284101289205 -1 1 1
3756 1252 2 0.5242 8.162324480211554 14.510076080404604 4.752789291609271 -1 1 1
3429 1143 2 0.5242 12.900914856864485 15.417598119767968 2.995577181435439 0 1 1
3717 1239 2 0.5242 11.343943355460611 13.837210066774949 2.8542477602750465 1 1 2
3715 1239 1 -1.0484 11.077298352693122 13.055343855625676 2.3706811936422953 1 1 2
3716 1239 2 0.5242 11.60295791287871 12.349470075930483 2.7470805972732837 1 1 2
3689 1230 2 0.5242 7.763172506095377 17.77180595934563 4.974751740799339 -1 -1 1
4452 1484 2 0.5242 13.90440487127618 14.279308206557918 4.578168779731254 2 0 0
4450 1484 1 -1.0484 13.783553511084062 13.955757885216691 5.470895853232981 2 0 0
3688 1230 1 -1.0484 7.333260221384288 17.95966743675306 4.140405070907036 -1 -1 1
273 91 2 0.5242 10.46358689991162 18.50601638284163 3.23103437363688 -1 0 0
3382 1128 1 -1.0484 12.191647047400076 19.75004107936302 0.7919553248609078 0 0 0
3384 1128 2 0.5242 12.573735026081703 18.947843535534222 36.28480897166273 0 0 -1
3290 1097 2 0.5242 9.481490295261976 12.764180042470903 1.3609281589070703 0 -2 1
1467 489 2 0.5242 17.83698003280802 13.252103722360976 5.111739665012694 1 1 0
1465 489 1 -1.0484 17.79399373475693 13.386348963061213 6.058513897389985 1 1 0
2873 958 2 0.5242 14.393302152831655 14.06066063311082 2.245991258490202 -1 2 1
2872 958 1 -1.0484 14.42252309540423 13.225020098226732 1.7800495455919025 -1 2 1
4099 1367 1 -1.0484 17.818270375136724 13.273675623493586 3.1706116512817686 1 1 -2
4100 1367 2 0.5242 18.508779225169942 13.927315268285039 3.0601424677256137 1 1 -2
3427 1143 1 -1.0484 13.845571444615492 15.391866069155235 3.1479336531600906 0 1 1
3428 1143 2 0.5242 14.166067314083437 16.228034045264756 2.8097677424934195 0 1 1
4101 1367 2 0.5242 17.0751475155971 13.766169631315806 3.5191353735091466 1 1 -2
1546 516 1 -1.0484 15.228291229592894 18.270459756379825 3.060850578205581 1 0 1
2864 955 2 0.5242 18.917285281619787 17.85664038046803 4.558087077633612 0 0 0
3985 1329 1 -1.0484 16.742419957422424 15.470860291386582 3.897581148572047 1 1 1
3986 1329 2 0.5242 15.946177418009649 15.947151600773543 3.6622193767797806 1 1 1
3987 1329 2 0.5242 17.088871024854363 15.942151771934142 4.655279691085161 1 1 1
1234 412 1 -1.0484 18.148216166117585 17.173042397977525 5.917027204835824 -1 -2 -1
2865 955 2 0.5242 18.297701316897484 18.564909358707588 3.372164227327198 0 0 0
4455 1485 2 0.5242 17.2043377927191 13.309532223437602 35.33412277228183 -1 0 -2
3856 1286 1 -1.0484 14.061600035819527 17.371425383800933 0.984471770509578 2 -1 -1
3857 1286 2 0.5242 14.43616174857493 17.82207538604597 1.7413527492118148 2 -1 -1
3858 1286 2 0.5242 14.806176958152351 17.221043574022115 36.25088520419534 2 -1 -2
1236 412 2 0.5242 18.862692952219312 16.59231409609161 6.178808237014569 -1 -2 -1
4451 1484 2 0.5242 14.408206802484322 14.457514656103289 5.994632369925747 2 0 0
2874 958 2 0.5242 15.159760127032468 13.31277783233435 1.1758717943944696 -1 2 1
2863 955 1 -1.0484 19.075384297860133 18.075100940632954 3.6396479831923805 0 0 0
1481 494 2 0.5242 22.883874461959948 15.419997389195395 5.1819812650569 1 -1 1
3992 1331 2 0.5242 20.852434042649513 15.661162858106273 3.521662040551333 0 1 1
3617 1206 2 0.5242 22.966157950856573 13.324048864710239 4.706077904082963 1 0 1
3991 1331 1 -1.0484 20.044097345112107 15.612242728805231 3.0113193352345835 0 1 1
3993 1331 2 0.5242 19.599285493052104 16.441579747780033 3.18623341532249 0 1 1
3616 1206 1 -1.0484 23.090865018671938 12.388093824449573 4.548955926230181 1 0 1
1480 494 1 -1.0484 22.44514690179887 15.222610099556956 4.354450551781464 1 -1 1
1482 494 2 0.5242 22.726773805715748 15.919187194864948 3.761392938608745 1 -1 1
4379 1460 2 0.5242 20.263873291780243 18.679406305466745 2.375849772464905 1 2 -1
4380 1460 2 0.5242 21.737693641821114 18.50735703372412 2.075525136388066 1 2 -1
3455 1152 2 0.5242 20.299200412558104 14.953366358790062 1.2421322471720186 -2 0 1
4127 1376 2 0.5242 22.758669478847285 18.124386787269504 3.930068752093392 -1 -1 0
4126 1376 1 -1.0484 23.13330710708793 17.73818516083048 3.1383960490992644 -1 -1 0
4128 1376 2 0.5242 23.962500759645415 18.200259274351193 3.0152048774930806 -1 -1 0
366 122 2 0.5242 24.464268877062434 18.5236583607869 8.35918683704077 0 0 1
3454 1152 1 -1.0484 20.157565721854827 14.302019506580965 0.5551543417837195 -2 0 1
4378 1460 1 -1.0484 20.938103737896405 18.909990084278522 1.7367135510158453 1 2 -1
2888 963 2 0.5242 23.508854527173007 12.848403828748845 2.7183016976386223 -1 0 -2
364 122 1 -1.0484 25.215511779937348 17.964249534358444 8.556535852935756 0 0 1
1618 540 1 -1.0484 27.857626886196012 12.703812836513547 5.837445212457144 0 0 1
1619 540 2 0.5242 28.781972572147705 12.455945235852841 5.81750001942481 0 0 1
2151 717 2 0.5242 26.696496280202677 18.460413450046303 4.371282665085719 -1 -1 0
498 166 2 0.5242 27.16528764840176 13.149802699963796 2.3428483045200066 -1 0 -1
497 166 2 0.5242 27.347870218355308 13.546331530118545 3.792458871172393 -1 0 -1
496 166 1 -1.0484 26.864945950197136 13.778428518782224 2.9992591312056587 -1 0 -1
2949 983 2 0.5242 27.74088175731438 15.508280035195641 3.3915884268888967 1 1 1
2947 983 1 -1.0484 28.46897132355918 16.11597954817706 3.521353195414051 1 1 1
2149 717 1 -1.0484 27.274641152156025 18.120851513287498 5.054434846030935 -1 -1 0
2948 983 2 0.5242 28.107167481538404 16.809728670130006 4.072771540183008 1 1 1
2375 792 2 0.5242 27.09474971639074 16.65594494525992 6.355091268976632 1 -1 2
2482 828 1 -1.0484 25.707188845270515 18.81581905611467 3.006056992257176 -1 -1 -1
2484 828 2 0.5242 26.137343871203473 18.44514225706913 2.235462351783384 -1 -1 -1
1620 540 2 0.5242 27.795608415763702 13.3421404367967 6.5480383899706185 0 0 1
2483 828 2 0.5242 25.554374489783672 19.73276558429704 2.77778624795969 -1 -1 -1
2150 717 2 0.5242 27.810108531675237 18.871730970933125 5.310765464688955 -1 -1 0
1419 473 2 0.5242 28.80142136000778 16.640244292162638 2.079297077405685 0 -1 0
1418 473 2 0.5242 29.23223046224577 17.926309838820515 1.4067041537286196 0 -1 0
1417 473 1 -1.0484 29.146460806430674 16.984988902952143 1.2556771876335777 0 -1 0
1219 407 1 -1.0484 35.506945132091246 15.78649278026037 2.015221325762008 1 1 1
4076 1359 2 0.5242 29.90784822647689 14.99073285008565 3.711552978156367 1 0 1
554 185 2 0.5242 30.524561873195058 15.768616480788733 5.531084215113981 -1 1 1
4075 1359 1 -1.0484 30.767772989956548 14.84378381379604 4.105490587199212 1 0 1
4077 1359 2 0.5242 30.878425659770823 13.893080206726317 4.092448752489808 1 0 1
518 173 2 0.5242 35.40867675581583 14.135605143620273 4.829597781645173 -2 1 -1
1221 407 2 0.5242 34.60524439467814 15.528316155466579 1.8240885668498055 1 1 1