LAMMPS data file via write_data, version 23 Jun 2022, timestep = 2000822

4500 atoms
2 atom types
3000 bonds
1 bond types
1500 angles
1 angle types

0.6373571923424777 36.349642807650156 xlo xhi
0.6294977607272081 36.349502239260495 ylo yhi
0.6049370369217684 36.34906296308079 zlo zhi

Masses

1 15.9994
2 1.00794

Pair Coeffs # lj/cut/tip4p/long/gpu

1 0.16275 3.16435
2 0 0

Bond Coeffs # harmonic

1 250 0.9572

Angle Coeffs # harmonic

1 60 104.52

Atoms # full

940 314 1 -1.0484 1.1237554498009215 1.054183441510505 6.57984603403677 1 0 0
942 314 2 0.5242 36.04377605965738 1.03330977698716 7.116597298971706 0 0 0
941 314 2 0.5242 0.8433306190102421 1.4469903959056243 5.7532348777434645 1 0 0
4060 1354 1 -1.0484 3.678196182334051 4.597918098615538 6.895422912435243 0 1 1
4062 1354 2 0.5242 3.1152857307418147 3.990072675127647 7.374878014431558 0 1 1
4061 1354 2 0.5242 4.336336603790086 4.870613471605104 7.534727072775952 0 1 1
796 266 1 -1.0484 4.855821665943335 4.5576532009039905 4.219373618290793 1 1 0
3987 1329 2 0.5242 4.061329594885379 1.9903161981218953 3.807753037861869 1 1 1
3985 1329 1 -1.0484 3.1733696461045837 1.8161052895314174 4.119841315859693 1 1 1
797 266 2 0.5242 4.554792698355602 4.579141230101742 5.127746469494442 1 1 0
1565 522 2 0.5242 2.369862744595957 5.609084224219442 6.897826029439993 1 0 1
1564 522 1 -1.0484 1.686456076308685 6.164156202881573 7.273421355546486 1 0 1
1566 522 2 0.5242 0.9043034675819551 5.9625672121821305 6.759786680414651 1 0 1
798 266 2 0.5242 4.268781386883022 5.1564350774858605 3.7577835475440837 1 1 0
179 60 2 0.5242 6.194471785886269 3.1712645305208116 5.22456148163483 0 -1 0
4258 1420 1 -1.0484 3.1226008718189515 6.329267517735938 3.0097160571741752 0 -1 1
4259 1420 2 0.5242 2.521937722932863 5.586587269599572 3.0717744986771494 0 -1 1
1940 647 2 0.5242 35.473058564147195 5.553528762293053 4.615765672203194 -1 -1 1
1939 647 1 -1.0484 35.286132362678806 5.5204626493046405 5.553948542906467 -1 -1 1
4260 1420 2 0.5242 3.0053476130509655 6.658954895828612 2.1187731274985016 0 -1 1
3950 1317 2 0.5242 5.158069549168083 3.4760016462463144 2.6598092815975978 -1 1 1
3647 1216 2 0.5242 9.742167164968672 4.847872047899313 1.4583710611061687 0 1 2
3648 1216 2 0.5242 8.917526650095294 3.658975474238249 1.9037501610003522 0 1 2
3646 1216 1 -1.0484 8.841804097395833 4.574016466930655 1.6332165842537778 0 1 2
180 60 2 0.5242 6.324878431080679 1.6775005642715848 5.433206168692612 0 -1 0
178 60 1 -1.0484 6.743194081906762 2.5111877283452877 5.648146166415149 0 -1 0
2588 863 2 0.5242 7.713531813552896 2.681429655402296 3.3926673255715083 1 0 0
2587 863 1 -1.0484 8.334396745947645 2.089186742181899 2.968407433353879 1 0 0
2589 863 2 0.5242 7.78511519406486 1.436260983749969 2.534588157945235 1 0 0
3019 1007 1 -1.0484 8.722407334285668 5.866099892631458 5.3959470222828 0 -1 1
3020 1007 2 0.5242 8.310663968620847 6.514258604089481 4.824476027607608 0 -1 1
296 99 2 0.5242 11.420545633906338 4.249936203427557 5.296466863925734 -1 0 -1
297 99 2 0.5242 9.944162398969398 4.488866663411428 5.061786730265186 -1 0 -1
2876 959 2 0.5242 9.901612509787745 2.4311754790078552 5.7484521253965575 1 0 0
2875 959 1 -1.0484 9.368654344977013 1.7010456627715902 6.063233840664933 1 0 0
2877 959 2 0.5242 8.465902322687128 2.0055396023412593 5.970801933428481 1 0 0
295 99 1 -1.0484 10.60085297073554 3.793859470954072 5.105889021595494 -1 0 -1
558 186 2 0.5242 10.167409121145091 1.0980362391629614 4.006100076776834 1 2 1
2954 985 2 0.5242 7.65068308983006 5.357530632401509 36.199501076380876 0 -1 -2
1197 399 2 0.5242 13.212939365467752 2.3179776744269667 3.375745944395734 1 0 1
1195 399 1 -1.0484 13.382755413461654 1.456074102168139 3.755885610258646 1 0 1
1196 399 2 0.5242 12.522224700201665 1.0391509264928778 3.7992839765307016 1 0 1
1779 593 2 0.5242 13.135922433383264 4.607745045104599 2.4833356816240424 -1 1 2
1777 593 1 -1.0484 13.051655413119086 4.136199494617687 3.312049341007389 -1 1 2
1778 593 2 0.5242 12.642997699891547 4.765863566478702 3.90597168251389 -1 1 2
2627 876 2 0.5242 14.097703355786251 1.8665724220992832 5.684032375484979 -1 0 0
4487 1496 2 0.5242 16.900790762083872 4.718554169023603 2.0157231006617007 3 0 -1
2974 992 1 -1.0484 15.797519609914062 2.991713117392535 2.353788053029653 -1 0 0
2975 992 2 0.5242 15.063208231263602 3.3669780058092353 2.8397766075715034 -1 0 0
3104 1035 2 0.5242 16.828482051643906 5.858876459012369 7.462778850757018 0 1 2
4486 1496 1 -1.0484 17.30240249258173 5.519487968093085 1.6789216489058687 3 0 -1
2976 992 2 0.5242 16.216245492703973 2.395247389436194 2.9743683434635195 -1 0 0
2626 876 1 -1.0484 13.928143163006016 1.8585448519812038 6.626054834734373 -1 0 0
3095 1032 2 0.5242 17.60494979830359 36.19573874332855 3.388076044214168 -1 -1 1
3094 1032 1 -1.0484 17.7401387594859 1.3714751258319775 3.697259908257121 -1 0 1
3096 1032 2 0.5242 17.944625419774436 1.2759814752924201 4.627469114612028 -1 0 1
2098 700 1 -1.0484 18.26227660743524 0.768220690149068 6.320912230312377 -1 2 0
4488 1496 2 0.5242 17.993937752818084 5.2129004006617 1.0924025603937344 3 0 -1
1233 411 2 0.5242 19.190134223506785 5.3576845769372445 6.583256022097986 -1 0 -1
1231 411 1 -1.0484 19.782862427602215 5.902233367339815 6.065219642086944 -1 0 -1
1403 468 2 0.5242 21.07025945324471 5.025515285510306 5.140093414844844 0 1 1
2263 755 1 -1.0484 21.7235157319195 3.4167804617852555 1.1828799098432907 1 0 0
2360 787 2 0.5242 21.066071451389387 2.4701080170233167 2.709420378074443 0 0 -2
1404 468 2 0.5242 21.409709573779242 3.8931831104401584 4.194331007643209 0 1 1
1402 468 1 -1.0484 21.809506149788696 4.533267394146218 4.783123170345258 0 1 1
162 54 2 0.5242 25.257726148528256 6.541389111596471 4.173339911656502 -1 1 2
160 54 1 -1.0484 25.654864632634414 6.727689832189639 3.322578783787766 -1 1 2
668 223 2 0.5242 22.645689520529587 1.3993440460400854 1.0724009202323914 0 1 2
3056 1019 2 0.5242 21.35554956739229 3.9128403375888725 6.530704616356297 -1 0 1
667 223 1 -1.0484 23.415094260722 0.922116591864134 1.3830321169960258 0 1 2
669 223 2 0.5242 24.015781979070933 1.6043868038437066 1.6828705631990961 0 1 2
3055 1019 1 -1.0484 20.960593103491707 3.4944948308836286 7.295700343190716 -1 0 1
2361 787 2 0.5242 19.732566750512255 1.9724475921565432 3.2251423573069817 0 0 -2
2359 787 1 -1.0484 20.588081084151824 2.2862864941020202 3.5180966549956127 0 0 -2
1227 409 2 0.5242 20.88553062024677 1.2020258070787722 5.165087727749672 1 1 1
982 328 1 -1.0484 25.098429356468557 2.8828086505536787 1.8951968611648122 1 2 0
2265 755 2 0.5242 22.46767461282057 4.012690661403277 1.268561662264962 1 0 0
161 54 2 0.5242 26.161348098539616 5.941938061031509 3.1169333276568243 -1 1 2
984 328 2 0.5242 25.73621868706121 3.132030148784763 2.564028171248683 1 2 0
2619 873 2 0.5242 25.798845425894424 3.863650362389037 4.914175113514497 1 1 0
983 328 2 0.5242 25.33022432283483 3.4134093738765756 1.1329921667354927 1 2 0
2081 694 2 0.5242 28.4082934580162 1.5814835045488222 3.1426897664270377 -1 2 0
2080 694 1 -1.0484 29.09758149963932 2.244644163378723 3.17905045221223 -1 2 0
2082 694 2 0.5242 28.97199418055752 2.675205636302214 4.024666545430652 -1 2 0
4462 1488 1 -1.0484 27.190732582070392 36.07699647653348 2.3612223068891325 -2 0 1
4463 1488 2 0.5242 26.495479593633707 36.13874845395199 1.7062174390873435 -2 0 1
1460 487 2 0.5242 29.859811846161158 3.6565742571932622 36.21152573748432 0 0 -1
1461 487 2 0.5242 29.30420665872974 3.281827315317765 1.824874908924185 0 0 0
1459 487 1 -1.0484 29.140868704335944 3.847142753309495 1.0699162925199461 0 0 0
453 151 2 0.5242 27.406889946289432 3.7215604884133398 35.721058941658626 -1 1 1
452 151 2 0.5242 26.656051935137373 5.025758019787212 35.55619326796651 -1 1 1
2743 915 1 -1.0484 29.776317526865732 6.5810495383051055 6.528804938390021 -1 0 0
2617 873 1 -1.0484 26.48633068780911 3.757749596077404 4.256626088209654 1 1 0
2618 873 2 0.5242 27.297377481339886 3.710812244784513 4.762809981536228 1 1 0
2118 706 2 0.5242 31.08821682738666 5.1392046393791215 3.674879902417213 -2 0 0
2450 817 2 0.5242 29.541263480132514 5.287067884015775 1.8550293169145733 -2 1 -1
2412 804 2 0.5242 30.85791916497118 1.6179834639880708 3.877889263503886 0 0 0
1394 465 2 0.5242 29.315667600591663 5.103604171751233 5.82434562399726 0 1 1
1393 465 1 -1.0484 28.77169402308317 4.316069170737396 5.814206943520128 0 1 1
1395 465 2 0.5242 28.794012575199712 3.9973507244861626 6.716505032960029 0 1 1
451 151 1 -1.0484 26.579665630324865 4.0838653248825025 35.40379410228052 -1 1 1
3143 1048 2 0.5242 1.969863212934577 3.3436087144301716 3.6231229443171515 2 2 0
3142 1048 1 -1.0484 1.5321861557512306 4.03109999314046 3.121110167255654 2 2 0
2451 817 2 0.5242 30.606462916163185 6.303076704261424 1.5015532946919814 -2 1 -1
2116 706 1 -1.0484 31.763020298221033 4.772013764551213 4.2458737149848025 -2 0 0
2117 706 2 0.5242 31.68158264891717 3.824727458300388 4.135246153290484 -2 0 0
2745 915 2 0.5242 30.638509366185342 6.991670807392961 6.463709028719371 -1 0 0
205 69 1 -1.0484 32.38858160069674 6.441746385698885 6.345190500420285 -1 1 1
207 69 2 0.5242 32.13929170184823 5.78538640624215 6.995780664908147 -1 1 1
718 240 1 -1.0484 34.5767778324462 1.7656922507472645 3.3642715119802915 -1 1 0
206 69 2 0.5242 32.015001911192144 6.120271258734817 5.524633748524624 -1 1 1
1756 586 1 -1.0484 33.984405396011496 4.540458106248181 2.492560041877879 -1 1 0
1757 586 2 0.5242 34.01039962782928 3.6180968124579516 2.238010618862604 -1 1 0
866 289 2 0.5242 34.203667035011875 5.960854309816366 1.4829126122124991 -1 0 0
1758 586 2 0.5242 33.40449671529777 4.563092884327304 3.2537534687565723 -1 1 0
4472 1491 2 0.5242 33.46412039255418 1.454960244196374 1.9703764396673915 -2 0 1
720 240 2 0.5242 34.4607217172439 2.148646275656039 4.233811263148285 -1 1 0
719 240 2 0.5242 34.48920289524949 0.8227620037989603 3.503681696426748 -1 1 0
2835 945 2 0.5242 34.471783162845995 4.039354168020866 5.89126146721688 -1 0 -1
2449 817 1 -1.0484 30.014585379044963 6.041061452403479 2.2067131432492966 -2 1 -1
2410 804 1 -1.0484 31.4757863844143 1.7710074990203912 4.592764039046839 0 0 0
4471 1491 1 -1.0484 32.87793964252183 1.283013195545836 1.2334580374553443 -2 0 1
4234 1412 1 -1.0484 3.4317801458980295 9.772303491014345 1.5458423891372512 1 0 -1
4236 1412 2 0.5242 2.978687435454733 9.165670730027527 0.9602443228907103 1 0 -1
2212 738 1 -1.0484 5.746796426050526 11.15948882553414 2.9922391281942753 0 2 0
2214 738 2 0.5242 5.179671047342523 10.46790966866971 2.651197908410905 0 2 0
2213 738 2 0.5242 6.355732839214749 10.705165924300939 3.574484822302881 0 2 0
1511 504 2 0.5242 6.677187490538288 11.304222171115521 1.3539079377536132 -1 1 0
1510 504 1 -1.0484 7.019149440776424 10.873071964460886 36.314839804178625 -1 1 -1
1684 562 1 -1.0484 7.3314756765345335 10.057559509997075 4.998426929339641 1 1 0
1685 562 2 0.5242 6.818476716153129 10.494735300032078 5.678082109300041 1 1 0
4235 1412 2 0.5242 3.6165820223275613 10.537975358258297 1.001952421916224 1 0 -1
851 284 2 0.5242 7.514912872972798 8.581359910524824 4.066339906375671 1 1 1
852 284 2 0.5242 7.174920082433441 7.652440711674392 2.9203102905788283 1 1 1
1340 447 2 0.5242 2.189429856030709 7.81954576559377 3.6490031545596353 3 1 1
3196 1066 1 -1.0484 3.9510556423469305 11.526274760868027 5.4214168472643225 1 0 1
3198 1066 2 0.5242 4.314869376934204 11.582057996631685 4.537816456182111 1 0 1
1887 629 2 0.5242 5.2780354395637135 13.083349450453367 2.4511816289308 1 2 1
3727 1243 1 -1.0484 3.2398724698073953 7.278086091802039 36.05237086882332 -1 0 0
2655 885 2 0.5242 10.26246890396602 6.965652214307403 1.74248177324335 0 0 1
1857 619 2 0.5242 13.210921370195576 8.521609587640462 3.1563947639870356 1 0 0
3021 1007 2 0.5242 9.315065585568552 6.375496591924353 5.9486608661437215 0 -1 1
1686 562 2 0.5242 8.172951703723472 9.871752780170498 5.415099755841613 1 1 0
850 284 1 -1.0484 7.701023511603138 7.709470720345606 3.717922279857777 1 1 1
2653 885 1 -1.0484 10.177057149399566 7.135464409605422 2.680613745985664 0 0 1
2654 885 2 0.5242 9.25373888250524 6.970147769321523 2.8713372763656424 0 0 1
1512 504 2 0.5242 7.664323967471914 10.248804797287278 0.9027707087477318 -1 1 0
1856 619 2 0.5242 11.95023408359291 7.745987989470386 3.4741186128390837 1 0 0
3737 1246 2 0.5242 9.05694407447168 10.524815462167288 2.355066753292938 0 1 0
3736 1246 1 -1.0484 9.244545734384971 9.831738885732422 1.722079285885446 0 1 0
3738 1246 2 0.5242 9.50898453551462 9.083317573365013 2.2570181715724935 0 1 0
3706 1236 1 -1.0484 10.045250468317633 9.448007142242783 5.929413828245177 1 1 2
3708 1236 2 0.5242 10.268569768722958 8.658849040863963 6.422952168636396 1 1 2
3707 1236 2 0.5242 9.880712989955716 10.111537967515648 6.599396011362186 1 1 2
1855 619 1 -1.0484 12.902189189737175 7.715097597302119 3.5692443566161494 1 0 0
3816 1272 2 0.5242 11.384458007150336 7.138754979041627 7.720881987341183 0 0 1
3814 1272 1 -1.0484 10.607341941947572 7.1164514726318915 7.162478373204621 0 0 1
1821 607 2 0.5242 4.936194855096772 8.281196944859378 1.503817980450192 -1 -1 0
1819 607 1 -1.0484 5.891711516407273 8.226979970353192 1.5202738609323712 -1 -1 0
4035 1345 2 0.5242 12.990081466617765 5.217780472444852 6.675314368968118 1 0 0
4033 1345 1 -1.0484 12.704233675869997 5.5166806968291855 5.812081042412973 1 0 0
795 265 2 0.5242 17.040977430459776 7.677485648358907 6.613125091236716 1 0 2
793 265 1 -1.0484 16.177150327004338 7.364584072098026 6.881670718534592 1 0 2
794 265 2 0.5242 15.763670403147126 7.074205037447005 6.068691132183061 1 0 2
4034 1345 2 0.5242 12.051287626531375 6.191995411887321 5.996019902557022 1 0 0
1229 410 2 0.5242 18.026469594754015 6.877637158571679 2.7495086234911663 2 1 1
122 41 2 0.5242 12.75637892354473 11.05936739597336 3.5304431843799855 0 1 -1
121 41 1 -1.0484 13.603942316547277 10.617439967278203 3.4798617622802275 0 1 -1
3203 1068 2 0.5242 14.203097468662051 6.061495447601542 5.019613014776757 -1 2 -1
3204 1068 2 0.5242 15.115660126853793 6.333039852812566 3.8425987233883903 -1 2 -1
3202 1068 1 -1.0484 15.124124901828097 6.179905033144185 4.787426591180674 -1 2 -1
1713 571 2 0.5242 16.113239419240713 12.170977186779714 3.8459112128340265 -1 1 0
1712 571 2 0.5242 15.533234362582537 10.819900481475083 4.20654250002042 -1 1 0
1711 571 1 -1.0484 16.350539764847248 11.318118810920112 4.209975146962182 -1 1 0
2202 734 2 0.5242 17.374345838985032 12.09454699251188 5.42070153084361 -1 2 1
1988 663 2 0.5242 17.757707448905627 10.604427247694678 3.146130961053974 1 1 0
1987 663 1 -1.0484 18.1641525707878 10.211595783725269 2.3736620119757794 1 1 0
1989 663 2 0.5242 18.330607503197818 9.303322658141617 2.625763174130732 1 1 0
3563 1188 2 0.5242 13.17305948177739 9.371076829150153 5.563330355298364 -1 1 -1
3891 1297 2 0.5242 14.560740317416036 8.123862123808596 1.2672660994932832 -1 0 -1
123 41 2 0.5242 13.678316484300039 10.344960962184427 2.5652877110212016 0 1 -1
3889 1297 1 -1.0484 14.069702278975441 8.91645383740125 1.483833449371939 -1 0 -1
3890 1297 2 0.5242 13.431633407627787 9.004442992949738 0.7757745286203119 -1 0 -1
3562 1188 1 -1.0484 12.851555429707254 9.557232827807653 6.445488431801438 -1 1 -1
3564 1188 2 0.5242 12.152978462551978 10.198658867021225 6.315933697210368 -1 1 -1
3073 1025 1 -1.0484 18.503306581132982 8.439586162356903 5.915414566933828 -2 0 -1
3074 1025 2 0.5242 18.406325850136355 8.176502564108153 5.000207944370775 -2 0 -1
1232 411 2 0.5242 19.569974851300984 6.7995803023409715 6.32147939218167 -1 0 -1
1228 410 1 -1.0484 18.677409867348562 7.446276421522463 3.1607854475895367 2 1 1
2201 734 2 0.5242 18.747221896954308 11.681866888894618 5.907297394098835 -1 2 1
3075 1025 2 0.5242 19.15218891006911 9.142988347077296 5.895452367648974 -2 0 -1
1230 410 2 0.5242 19.50272794315828 7.212815235671468 2.7358526467404576 2 1 1
4251 1417 2 0.5242 20.41172794645395 10.972598853515063 4.367365836637495 0 0 1
2739 913 2 0.5242 21.851515150219154 8.378641035967249 1.4837255915311274 -1 -1 0
50 17 2 0.5242 21.927587386420058 10.571460651554611 1.55416405891093 0 -1 -1
51 17 2 0.5242 23.224065011836526 10.04057946404812 2.1279061579545964 0 -1 -1
49 17 1 -1.0484 22.63439502820467 9.95010151023457 1.3793579311378779 0 -1 -1
4249 1417 1 -1.0484 20.101046611487554 10.736605364744932 5.241440679047682 0 0 1
4250 1417 2 0.5242 20.89900769011509 10.632234074365574 5.759695039343746 0 0 1
3373 1125 1 -1.0484 24.778777477148527 9.413199555681954 3.624564944779329 1 0 -1
3375 1125 2 0.5242 25.243567277094705 8.577226816599385 3.6611982521284556 1 0 -1
3374 1125 2 0.5242 24.775093934446517 9.725585069942502 4.529343148822825 1 0 -1
3379 1127 1 -1.0484 20.628406581037392 11.364775831886238 2.6166687919275557 -1 -1 1
3381 1127 2 0.5242 20.461206698792363 12.282624433073163 2.4026137805131462 -1 -1 1
2200 734 1 -1.0484 18.002156544974042 12.24065769067827 6.12832206401259 -1 2 1
107 36 2 0.5242 24.373951865003875 14.148819585949878 6.673803690413722 0 0 2
114 38 2 0.5242 23.25169669958324 9.90620265473028 6.732433073879285 1 0 0
2737 913 1 -1.0484 21.253206780761158 7.643518111989716 1.3501486340841145 -1 -1 0
3380 1127 2 0.5242 19.772785639580114 10.94179131492309 2.544430850478357 -1 -1 1
602 201 2 0.5242 26.076371057493905 7.656295704978175 35.34875164694386 -1 1 0
601 201 1 -1.0484 25.90751275160541 6.875727252483969 35.87640911743202 -1 1 0
603 201 2 0.5242 25.600045348777357 7.21592585047074 0.9724918596624001 -1 1 1
3177 1059 2 0.5242 25.847276706546918 9.31372982702065 1.837881650727958 0 1 0
3175 1059 1 -1.0484 26.11427133322073 9.596739408778072 0.9633295910842641 0 1 0
3176 1059 2 0.5242 25.535130139510656 10.331695939151079 0.761694422320558 0 1 0
3543 1181 2 0.5242 29.232558198244195 9.74453350561669 1.2630475228736455 -1 2 0
3541 1181 1 -1.0484 28.62071184951265 10.480623706770169 1.25699295036596 -1 2 0
3542 1181 2 0.5242 27.76568381785705 10.08068129404779 1.098264994191479 -1 2 0
115 39 1 -1.0484 25.274849137159897 12.20760794922275 36.15796683890443 -1 0 -1
3573 1191 2 0.5242 29.008576755086093 8.273293350657154 6.382815083024913 1 -1 -2
3571 1191 1 -1.0484 28.34463917519898 8.919562335886592 6.142512333617302 1 -1 -2
3678 1226 2 0.5242 28.264711065548493 11.860187366753873 36.09063971670752 0 0 -1
4241 1414 2 0.5242 29.350659241539002 11.687156172883407 5.079606046935517 -1 1 1
3572 1191 2 0.5242 27.733812493535098 8.921504736018724 6.87947154087928 1 -1 -2
1617 539 2 0.5242 25.228393135868775 9.798252621107565 7.166409590517099 -2 0 -1
1615 539 1 -1.0484 24.924951207341277 10.351610025564652 6.44672909575962 -2 0 -1
2928 976 2 0.5242 34.57686084032035 7.5674619373950085 2.6474778618380084 0 1 -2
1941 647 2 0.5242 34.677790013703294 6.244269121368637 5.703099593627815 -1 -1 1
899 300 2 0.5242 29.218889939626045 7.742821605143521 3.2757604160636977 0 1 0
2927 976 2 0.5242 35.60974879607478 8.518784705025972 3.2131606301230553 0 1 -2
2926 976 1 -1.0484 34.7730334145165 8.101184942894161 3.4174635871106 0 1 -2
1766 589 2 0.5242 33.447353229441156 11.08802738475248 3.638869280404567 1 0 1
1765 589 1 -1.0484 34.37015553653508 10.833747496096626 3.639353726516026 1 0 1
900 300 2 0.5242 28.68862649142125 8.822293971812917 4.195232864269702 0 1 0
1767 589 2 0.5242 34.40452217680773 10.056142573861546 4.196463508113585 1 0 1
898 300 1 -1.0484 29.24868225185144 8.686892528304066 3.430886270356955 0 1 0
1339 447 1 -1.0484 1.8985243286562887 8.720222713377366 3.7917526949566946 3 1 1
1341 447 2 0.5242 2.4702343900487485 9.248245190487573 3.2344718905315353 3 1 1
1130 377 2 0.5242 36.264260734557716 13.085709414837938 3.166931975188969 0 -2 0
1131 377 2 0.5242 35.6031593160804 12.046339688194454 4.047002742763018 0 -2 0
4257 1419 2 0.5242 1.111076826805887 8.81515525913214 5.995385615283891 -1 -2 1
1532 511 2 0.5242 34.14560629791298 10.196829833582548 1.9845114731233358 0 -1 0
1129 377 1 -1.0484 35.969743564691434 12.93038524762292 4.064347966752355 0 -2 0
2790 930 2 0.5242 34.36221083377271 8.933423615626545 6.63015833618707 0 -1 -1
1531 511 1 -1.0484 33.85758398634122 9.861055628489213 1.1356758753574034 0 -1 0
2788 930 1 -1.0484 33.50489760468736 9.35326233188552 6.700667382099173 0 -1 -1
2789 930 2 0.5242 32.89728498856096 8.725278757842673 6.309943484847704 0 -1 -1
913 305 1 -1.0484 32.20018998807584 11.741446978627764 6.681761260812151 -1 0 1
914 305 2 0.5242 32.75739662491448 10.966985446899276 6.758907245647733 -1 0 1
865 289 1 -1.0484 34.217461041760764 6.796313102833187 1.015965320299752 -1 0 0
1533 511 2 0.5242 33.70931385926935 8.927239308868371 1.2847553223123265 0 -1 0
2660 887 2 0.5242 1.7931108717160948 13.645785818484656 0.9803003947952191 1 1 1
1885 629 1 -1.0484 4.7180145702228815 13.650160923554273 1.9207826898620757 1 2 1
1886 629 2 0.5242 4.051940121114798 13.967815519548202 2.5304234083155457 1 2 1
4314 1438 2 0.5242 7.2241664897125295 18.235446558213695 4.611241313658675 1 1 1
616 206 1 -1.0484 5.85015076153556 16.916369163622146 4.38922007195512 0 0 0
618 206 2 0.5242 5.1777756081779716 16.259479514729684 4.569855206074672 0 0 0
534 178 2 0.5242 3.2167636480165367 16.500518131834674 5.192567005860902 1 -2 0
64 22 1 -1.0484 5.779638185159351 16.741880695730117 1.7970944004354537 -2 1 1
66 22 2 0.5242 6.001789275220241 17.399068875914256 1.1375687256196598 -2 1 1
65 22 2 0.5242 5.4158448951078775 16.01215600781629 1.2957179328231048 -2 1 1
533 178 2 0.5242 2.958809311866373 15.031833935733125 5.453901767761256 1 -2 0
532 178 1 -1.0484 3.589172126862586 15.629937750884961 5.052483358305167 1 -2 0
737 246 2 0.5242 0.8961997664571593 16.563424437338135 2.6050185041757046 1 0 0
617 206 2 0.5242 6.015746184674145 16.83821469797667 3.449703448759271 0 0 0
736 246 1 -1.0484 36.01079049874451 16.43154944189869 3.3409477156607696 0 0 0
738 246 2 0.5242 0.8396933575922789 16.029859375528375 4.020640115827588 1 0 0
832 278 1 -1.0484 2.6564968496279042 14.827916331456805 35.52248499177303 1 -1 -1
834 278 2 0.5242 2.4354594068977975 15.532145344388413 36.13193198581207 1 -1 -1
2274 758 2 0.5242 2.410458842631006 17.66090358791933 1.311993715537323 -1 -1 1
2273 758 2 0.5242 3.4454822215818846 17.353411901787222 2.37314627906862 -1 -1 1
2272 758 1 -1.0484 2.7496331689686513 16.94921547052103 1.8548404472342552 -1 -1 1
1294 432 1 -1.0484 11.59934738768439 12.48811045842753 3.56403406825806 1 0 1
4312 1438 1 -1.0484 8.14745383082727 18.4761877078144 4.535042656225519 1 1 1
4313 1438 2 0.5242 8.617812005220589 17.763208615863302 4.967068375967101 1 1 1
2725 909 1 -1.0484 9.5602688389714 16.271295335987702 5.288779484259792 2 1 -1
1296 432 2 0.5242 10.657831104235584 12.315596980821065 3.5611389140822594 1 0 1
1295 432 2 0.5242 11.790208414713302 12.762976415259295 4.460829737622394 1 0 1
2771 924 2 0.5242 8.721222029741682 12.894283491493766 2.4144911089092105 0 0 1
2770 924 1 -1.0484 8.84720282977676 12.325477229126182 3.1739709889910057 0 0 1
2772 924 2 0.5242 8.65867314585715 12.885413177651056 3.9270644058391277 0 0 1
981 327 2 0.5242 8.46449730712651 14.629610399113748 5.520451423203969 1 0 0
979 327 1 -1.0484 8.163854598015819 13.720919395301477 5.509637812060142 1 0 0
980 327 2 0.5242 8.636387739575223 13.303216191202226 6.229678323914265 1 0 0
516 172 2 0.5242 13.84792295485709 15.874286712106015 2.667638530167414 1 -1 2
3774 1258 2 0.5242 11.335379910572312 13.657026513227697 1.7528913263135737 1 0 1
514 172 1 -1.0484 13.508476730711068 14.985145356785585 2.769744856004189 1 -1 2
515 172 2 0.5242 13.974038456190199 14.473114762699874 2.108459438549926 1 -1 2
4303 1435 1 -1.0484 8.38991719292188 14.162481135676293 1.158447313875572 0 0 1
2727 909 2 0.5242 10.15443853744419 16.745716541687997 4.707308651896957 2 1 -1
4305 1435 2 0.5242 8.538731179660264 15.086571787374387 0.9581152471987328 0 0 1
3829 1277 1 -1.0484 9.486880481331694 16.245803936937953 35.28267126964591 0 1 -1
2799 933 2 0.5242 11.633711840487273 16.11958331609084 3.5748589216961912 1 0 0
2378 793 2 0.5242 8.164554382215865 18.863278372537145 2.6101093577038927 0 0 2
3831 1277 2 0.5242 9.09483935310344 17.06312921990977 34.97525534364282 0 1 -1
2797 933 1 -1.0484 11.247102298863961 16.991879423452833 3.498343411282439 1 0 0
2798 933 2 0.5242 11.033763521276382 17.079176919482173 2.569318531246986 1 0 0
3773 1258 2 0.5242 10.432133799575151 14.213562070596284 0.6729447386505814 1 0 1
3772 1258 1 -1.0484 11.231852018895898 13.70375963335403 0.8024598680588632 1 0 1
1145 382 2 0.5242 14.828288592868626 18.280649423087763 2.961283065691202 1 1 1
1144 382 1 -1.0484 15.05666277278435 17.509354431661418 2.44246508870022 1 1 1
1146 382 2 0.5242 15.121037425976041 17.834595364342654 1.5445249196463797 1 1 1
548 183 2 0.5242 14.071823147177064 20.03641873182731 6.343824645784705 -1 -1 2
2847 949 2 0.5242 16.212719929815144 16.781968854835245 3.5464641797396044 -1 0 0
691 231 1 -1.0484 15.412283416316328 13.922588119553659 36.03469005477243 0 0 -1
2845 949 1 -1.0484 16.71876115525389 16.354292789619308 4.237287509586599 -1 0 0
2846 949 2 0.5242 17.52620980592121 16.86513934595708 4.294592565464629 -1 0 0
1427 476 2 0.5242 16.085162651572233 14.6225792982227 5.410828484053612 1 0 0
1897 633 1 -1.0484 16.515752832865218 13.675124102677902 2.8501422831225716 2 0 1
1899 633 2 0.5242 16.074899040399835 13.663529698350152 2.0005919387978874 2 0 1
3076 1026 1 -1.0484 19.503014589256846 17.215359258308652 4.97902565364071 1 -2 1
1898 633 2 0.5242 16.60630599685195 14.604435120629566 3.0608622915075197 2 0 1
3046 1016 1 -1.0484 17.800595495062122 17.843344363569443 0.9582280882102415 0 -2 0
3048 1016 2 0.5242 18.62846855519249 17.727658876405314 1.4245601089865234 0 -2 0
4063 1355 1 -1.0484 20.16245270264958 17.66824279075913 2.387721663025885 -2 0 1
4064 1355 2 0.5242 21.068929305154608 17.969222276043975 2.450434749177936 -2 0 1
4065 1355 2 0.5242 19.882197955597608 17.55972419988409 3.296513388899766 -2 0 1
549 183 2 0.5242 14.823629956354113 19.254612751835005 7.399966207182759 -1 -1 2
547 183 1 -1.0484 14.898175789924371 19.58031321687783 6.502980349783092 -1 -1 2
491 164 2 0.5242 13.629427541905548 18.030045991095786 35.146078747025875 3 1 -1
3294 1098 2 0.5242 22.570618709699716 13.267729039984225 3.677576318456834 0 0 0
3293 1098 2 0.5242 23.343383185844587 14.131680912203047 2.7037738253851487 0 0 0
3292 1098 1 -1.0484 23.460627387500146 13.489730248415414 3.4040413097963302 0 0 0
2740 914 1 -1.0484 20.21344262368384 14.025080966815715 2.5280628952493798 -1 0 1
2742 914 2 0.5242 19.284082604979787 13.937225276572049 2.3164192443035283 -1 0 1
2741 914 2 0.5242 20.22527201769918 14.456872399990747 3.382251574452148 -1 0 1
3078 1026 2 0.5242 19.278856993105627 16.286885084961206 5.041568647427341 1 -2 1
4345 1449 1 -1.0484 22.847915054188974 18.316916619766047 2.1444750912256474 -2 0 1
1345 449 1 -1.0484 22.58607528087303 15.48484020764992 1.6780600559124732 1 0 0
1346 449 2 0.5242 22.57203683895108 16.384104888735337 2.0056996607570885 1 0 0
1347 449 2 0.5242 21.70048420323512 15.1578953475564 1.8363577512591476 1 0 0
1760 587 2 0.5242 20.214335032524964 20.666087049242392 2.7115052553771704 -1 1 0
108 36 2 0.5242 23.529493614903615 14.391794377084528 5.441033135582726 0 0 2
106 36 1 -1.0484 23.64848259997837 14.680253073061033 6.345939070120472 0 0 2
116 39 2 0.5242 25.445741009233032 12.694557302590667 1.2200040778423182 -1 0 0
3677 1226 2 0.5242 27.163141845652547 12.22788415957346 35.11944798350493 0 0 -1
4346 1449 2 0.5242 23.459075628732425 18.141734679588808 2.860028187467807 -2 0 1
4347 1449 2 0.5242 23.406828238364707 18.453359320660812 1.3794776847205568 -2 0 1
2822 941 2 0.5242 25.23028077215857 13.230008450060964 3.3591649523161418 -1 1 1
2823 941 2 0.5242 26.32915646016566 14.127187608488118 2.8305707621186977 -1 1 1
2821 941 1 -1.0484 26.07318186466184 13.20795291104644 2.9061153899803 -1 1 1
365 122 2 0.5242 27.97608161083411 12.534365404513425 3.2218121317078543 3 -1 1
3676 1226 1 -1.0484 28.07586534815061 12.418137307755408 35.33615274824128 0 0 -1
2631 877 2 0.5242 27.011488381427743 17.385938758419773 3.825863281502959 -1 0 1
3828 1276 2 0.5242 26.437846770006523 16.42183486151201 1.8065178364647438 -1 0 1
3826 1276 1 -1.0484 26.772946868172834 15.960607290781956 2.5754121518773605 -1 0 1
3827 1276 2 0.5242 27.563144131294443 15.518709577043463 2.26470953663 -1 0 1
2208 736 2 0.5242 28.474696655648437 13.755294341707218 0.9313835511427754 -1 0 0
2630 877 2 0.5242 27.40736587106444 17.530099411165253 5.27994984968979 -1 0 1
2629 877 1 -1.0484 27.14207449780865 18.03868992839484 4.513674718142625 -1 0 1
2608 870 1 -1.0484 25.995479813681133 17.92037709217053 0.7220605316682002 1 -1 0
2206 736 1 -1.0484 28.783387104317505 14.471735247510246 1.4860402528884147 -1 0 0
2207 736 2 0.5242 29.263778967543082 15.046622070761458 0.8902632183160224 -1 0 0
2402 801 2 0.5242 30.19225551115558 16.965931120792355 36.20271725174122 -1 -1 0
2609 870 2 0.5242 26.180472142079434 18.760966994897736 1.140877717944632 1 -1 0
3426 1142 2 0.5242 30.9826196214274 16.292733781517548 3.8786505067132957 0 0 0
366 122 2 0.5242 28.627529703126946 11.172759978735186 3.105557653525392 3 -1 1
364 122 1 -1.0484 28.686051933255786 12.00182509451932 3.5803708806308148 3 -1 1
1125 375 2 0.5242 28.30747565536508 13.415043153481053 5.060802004807648 -1 0 2
2659 887 1 -1.0484 0.9973486425641087 13.400280406155542 1.4522243148124119 1 1 1
2326 776 1 -1.0484 31.712646386596592 11.837554691798411 2.971042981753352 -2 -1 -1
258 86 2 0.5242 31.647455959453342 14.875738055120665 2.645688760610748 -1 0 2
256 86 1 -1.0484 30.96724993271225 14.545412252402048 3.2325672069006486 -1 0 2
3453 1151 2 0.5242 33.29735882020406 16.500992489036445 6.641633428094245 0 2 1
2066 689 2 0.5242 34.18732563610701 13.96653653756976 3.2293610769298056 0 -1 1
2065 689 1 -1.0484 33.930362676238225 14.767274695264717 2.772185131870567 0 -1 1
2067 689 2 0.5242 34.6216526771948 15.395428978159298 2.981378245213394 0 -1 1