LAMMPS data file. CGCMM style. atom_style full generated by VMD/TopoTools v1.7 on Mon Jan 30 18:28:13 IST 2023
 4500 atoms
 3000 bonds
 1500 angles
 0 dihedrals
 0 impropers
 2 atom types
 1 bond types
 1 angle types
 0 dihedral types
 0 improper types
  -0.0430 35.6270  xlo xhi
  -0.0590 35.6640  ylo yhi
  -0.0970 35.6700  zlo zhi

# Pair Coeffs
#
# 1  1HT
# 2  2OT

# Bond Coeffs
#
# 1  1HT-2OT

# Angle Coeffs
#
# 1  1HT-2OT-1HT

 Masses

 1 1.007940 # 1HT
 2 15.999400 # 2OT

 Atoms # full

1 1 2 -0.834000 27.514999 15.682000 7.235000 # 2OT TIP3
2 1 1 0.417000 27.098000 14.754000 6.873000 # 1HT TIP3
3 1 1 0.417000 27.076000 15.926000 8.190000 # 1HT TIP3
4 2 2 -0.834000 11.248000 17.462000 14.368000 # 2OT TIP3
5 2 1 0.417000 10.597000 17.629000 13.522000 # 1HT TIP3
6 2 1 0.417000 10.953000 18.107000 15.181000 # 1HT TIP3
7 3 2 -0.834000 18.259001 0.063000 15.608000 # 2OT TIP3
8 3 1 0.417000 17.754000 1.000000 15.786000 # 1HT TIP3
9 3 1 0.417000 18.546000 -0.001000 14.569000 # 1HT TIP3
10 4 2 -0.834000 28.020000 6.416000 16.599001 # 2OT TIP3
11 4 1 0.417000 28.976000 6.278000 16.115000 # 1HT TIP3
12 4 1 0.417000 27.229000 6.130000 15.922000 # 1HT TIP3
13 5 2 -0.834000 24.910999 10.902000 34.877998 # 2OT TIP3
14 5 1 0.417000 24.964001 10.267000 34.005001 # 1HT TIP3
15 5 1 0.417000 25.785000 10.745000 35.491001 # 1HT TIP3
16 6 2 -0.834000 11.003000 33.328999 1.167000 # 2OT TIP3
17 6 1 0.417000 11.275000 33.804001 2.098000 # 1HT TIP3
18 6 1 0.417000 10.919000 32.264000 1.317000 # 1HT TIP3
19 7 2 -0.834000 18.094999 31.648001 9.573000 # 2OT TIP3
20 7 1 0.417000 18.858000 30.921000 9.339000 # 1HT TIP3
21 7 1 0.417000 17.926001 32.282001 8.715000 # 1HT TIP3
22 8 2 -0.834000 34.901001 25.077999 26.268999 # 2OT TIP3
23 8 1 0.417000 34.029999 24.510000 25.976999 # 1HT TIP3
24 8 1 0.417000 35.596001 25.118999 25.444000 # 1HT TIP3
25 9 2 -0.834000 21.267000 18.476000 34.987000 # 2OT TIP3
26 9 1 0.417000 20.927000 18.441999 33.962002 # 1HT TIP3
27 9 1 0.417000 20.636000 17.847000 35.597000 # 1HT TIP3
28 10 2 -0.834000 32.661999 33.195000 32.318001 # 2OT TIP3
29 10 1 0.417000 32.859001 34.242001 32.137001 # 1HT TIP3
30 10 1 0.417000 33.570999 32.708000 32.637001 # 1HT TIP3
31 11 2 -0.834000 3.584000 14.870000 15.686000 # 2OT TIP3
32 11 1 0.417000 3.147000 14.675000 14.717000 # 1HT TIP3
33 11 1 0.417000 4.489000 14.292000 15.796000 # 1HT TIP3
34 12 2 -0.834000 10.945000 16.381001 0.573000 # 2OT TIP3
35 12 1 0.417000 11.975000 16.268999 0.267000 # 1HT TIP3
36 12 1 0.417000 10.879000 16.305000 1.648000 # 1HT TIP3
37 13 2 -0.834000 13.026000 25.330999 4.968000 # 2OT TIP3
38 13 1 0.417000 13.422000 25.528000 5.954000 # 1HT TIP3
39 13 1 0.417000 13.385000 24.374001 4.620000 # 1HT TIP3
40 14 2 -0.834000 32.337002 23.066000 13.054000 # 2OT TIP3
41 14 1 0.417000 31.840000 22.511000 12.271000 # 1HT TIP3
42 14 1 0.417000 31.796000 23.980000 13.245000 # 1HT TIP3
43 15 2 -0.834000 11.500000 26.139999 34.910000 # 2OT TIP3
44 15 1 0.417000 12.549000 25.889000 34.973000 # 1HT TIP3
45 15 1 0.417000 10.941000 25.527000 35.602001 # 1HT TIP3
46 16 2 -0.834000 7.789000 4.818000 28.379000 # 2OT TIP3
47 16 1 0.417000 7.877000 4.064000 27.610001 # 1HT TIP3
48 16 1 0.417000 6.837000 4.716000 28.877001 # 1HT TIP3
49 17 2 -0.834000 24.049000 8.152000 15.081000 # 2OT TIP3
50 17 1 0.417000 24.413000 9.139000 15.327000 # 1HT TIP3
51 17 1 0.417000 23.125000 7.967000 15.608000 # 1HT TIP3
52 18 2 -0.834000 12.249000 8.210000 27.195999 # 2OT TIP3
53 18 1 0.417000 11.743000 7.279000 27.403000 # 1HT TIP3
54 18 1 0.417000 11.576000 8.878000 26.680000 # 1HT TIP3
55 19 2 -0.834000 33.813000 19.893999 14.332000 # 2OT TIP3
56 19 1 0.417000 33.209000 20.555000 13.727000 # 1HT TIP3
57 19 1 0.417000 33.890999 20.292000 15.333000 # 1HT TIP3
58 20 2 -0.834000 31.895000 30.618999 31.833000 # 2OT TIP3
59 20 1 0.417000 31.311001 31.469000 32.154999 # 1HT TIP3
60 20 1 0.417000 32.825001 30.962999 31.405001 # 1HT TIP3
61 21 2 -0.834000 18.975000 17.964001 26.865999 # 2OT TIP3
62 21 1 0.417000 19.987000 17.725000 27.157000 # 1HT TIP3
63 21 1 0.417000 18.302999 17.209000 27.246000 # 1HT TIP3
64 22 2 -0.834000 0.672000 21.368999 23.065001 # 2OT TIP3
65 22 1 0.417000 1.165000 21.676001 23.976000 # 1HT TIP3
66 22 1 0.417000 1.406000 21.003000 22.364000 # 1HT TIP3
67 23 2 -0.834000 23.406000 3.096000 4.326000 # 2OT TIP3
68 23 1 0.417000 24.461000 2.935000 4.489000 # 1HT TIP3
69 23 1 0.417000 23.204000 3.114000 3.265000 # 1HT TIP3
70 24 2 -0.834000 8.936000 35.567001 26.113001 # 2OT TIP3
71 24 1 0.417000 8.121000 35.341000 25.441000 # 1HT TIP3
72 24 1 0.417000 8.567000 35.611000 27.125999 # 1HT TIP3
73 25 2 -0.834000 2.435000 0.500000 5.251000 # 2OT TIP3
74 25 1 0.417000 1.390000 0.740000 5.380000 # 1HT TIP3
75 25 1 0.417000 2.917000 0.461000 6.216000 # 1HT TIP3
76 26 2 -0.834000 20.709999 24.780001 17.061001 # 2OT TIP3
77 26 1 0.417000 21.441000 25.017000 16.302999 # 1HT TIP3
78 26 1 0.417000 19.993999 25.584000 17.135000 # 1HT TIP3
79 27 2 -0.834000 0.025000 33.029999 31.215000 # 2OT TIP3
80 27 1 0.417000 0.081000 31.968000 31.024000 # 1HT TIP3
81 27 1 0.417000 0.284000 33.570999 30.316999 # 1HT TIP3
82 28 2 -0.834000 23.360001 13.552000 29.886999 # 2OT TIP3
83 28 1 0.417000 24.344000 13.916000 29.628000 # 1HT TIP3
84 28 1 0.417000 22.639999 13.920000 29.171000 # 1HT TIP3
85 29 2 -0.834000 8.804000 31.830000 11.821000 # 2OT TIP3
86 29 1 0.417000 8.187000 30.951000 11.699000 # 1HT TIP3
87 29 1 0.417000 9.007000 31.983999 12.870000 # 1HT TIP3
88 30 2 -0.834000 14.112000 32.729000 1.195000 # 2OT TIP3
89 30 1 0.417000 13.287000 33.400002 1.009000 # 1HT TIP3
90 30 1 0.417000 14.659000 32.568001 0.278000 # 1HT TIP3
91 31 2 -0.834000 0.693000 2.745000 17.229000 # 2OT TIP3
92 31 1 0.417000 1.517000 2.520000 17.889000 # 1HT TIP3
93 31 1 0.417000 0.283000 3.711000 17.481001 # 1HT TIP3
94 32 2 -0.834000 8.700000 2.921000 9.075000 # 2OT TIP3
95 32 1 0.417000 7.658000 3.205000 9.063000 # 1HT TIP3
96 32 1 0.417000 8.880000 2.178000 8.313000 # 1HT TIP3
97 33 2 -0.834000 16.471001 20.306999 21.448999 # 2OT TIP3
98 33 1 0.417000 16.957001 20.924000 20.705999 # 1HT TIP3
99 33 1 0.417000 15.701000 19.716000 20.978001 # 1HT TIP3
100 34 2 -0.834000 10.384000 11.295000 30.393999 # 2OT TIP3
101 34 1 0.417000 10.297000 12.322000 30.719000 # 1HT TIP3
102 34 1 0.417000 10.805000 10.700000 31.191000 # 1HT TIP3
103 35 2 -0.834000 0.516000 33.516998 27.486000 # 2OT TIP3
104 35 1 0.417000 -0.004000 32.932999 28.232000 # 1HT TIP3
105 35 1 0.417000 -0.017000 34.441002 27.316999 # 1HT TIP3
106 36 2 -0.834000 27.361000 3.816000 28.410000 # 2OT TIP3
107 36 1 0.417000 27.280001 4.882000 28.257999 # 1HT TIP3
108 36 1 0.417000 27.018000 3.568000 29.403000 # 1HT TIP3
109 37 2 -0.834000 14.064000 1.225000 1.053000 # 2OT TIP3
110 37 1 0.417000 14.880000 0.536000 0.892000 # 1HT TIP3
111 37 1 0.417000 13.564000 1.418000 0.116000 # 1HT TIP3
112 38 2 -0.834000 20.652000 16.143999 8.459000 # 2OT TIP3
113 38 1 0.417000 19.816999 15.459000 8.449000 # 1HT TIP3
114 38 1 0.417000 21.205999 16.049999 7.538000 # 1HT TIP3
115 39 2 -0.834000 20.664000 21.237000 14.006000 # 2OT TIP3
116 39 1 0.417000 20.528999 22.061001 14.690000 # 1HT TIP3
117 39 1 0.417000 19.843000 21.212999 13.305000 # 1HT TIP3
118 40 2 -0.834000 21.629000 29.389000 16.375999 # 2OT TIP3
119 40 1 0.417000 20.854000 29.156000 17.091999 # 1HT TIP3
120 40 1 0.417000 21.232000 29.306000 15.376000 # 1HT TIP3
121 41 2 -0.834000 7.540000 32.993000 9.905000 # 2OT TIP3
122 41 1 0.417000 6.947000 32.285999 10.466000 # 1HT TIP3
123 41 1 0.417000 7.336000 33.993000 10.258000 # 1HT TIP3
124 42 2 -0.834000 15.895000 16.860001 0.807000 # 2OT TIP3
125 42 1 0.417000 16.166000 15.862000 0.498000 # 1HT TIP3
126 42 1 0.417000 15.678000 16.864000 1.864000 # 1HT TIP3
127 43 2 -0.834000 9.149000 8.522000 5.566000 # 2OT TIP3
128 43 1 0.417000 9.911000 7.757000 5.590000 # 1HT TIP3
129 43 1 0.417000 9.170000 9.021000 4.609000 # 1HT TIP3
130 44 2 -0.834000 31.973000 5.230000 27.620001 # 2OT TIP3
131 44 1 0.417000 32.028000 4.239000 27.193001 # 1HT TIP3
132 44 1 0.417000 32.090000 5.965000 26.837999 # 1HT TIP3
133 45 2 -0.834000 1.661000 7.733000 30.136999 # 2OT TIP3
134 45 1 0.417000 1.214000 6.808000 29.805000 # 1HT TIP3
135 45 1 0.417000 2.106000 7.590000 31.111000 # 1HT TIP3
136 46 2 -0.834000 7.699000 18.691999 12.169000 # 2OT TIP3
137 46 1 0.417000 8.113000 17.702999 12.297000 # 1HT TIP3
138 46 1 0.417000 7.026000 18.695000 11.325000 # 1HT TIP3
139 47 2 -0.834000 23.296000 5.250000 25.202999 # 2OT TIP3
140 47 1 0.417000 23.062000 4.216000 25.410999 # 1HT TIP3
141 47 1 0.417000 24.264999 5.312000 24.731001 # 1HT TIP3
142 48 2 -0.834000 32.786999 22.194000 15.273000 # 2OT TIP3
143 48 1 0.417000 33.554001 22.895000 14.979000 # 1HT TIP3
144 48 1 0.417000 32.455002 22.423000 16.275000 # 1HT TIP3
145 49 2 -0.834000 21.343000 15.270000 10.404000 # 2OT TIP3
146 49 1 0.417000 22.091000 15.769000 11.003000 # 1HT TIP3
147 49 1 0.417000 20.599001 14.830000 11.050000 # 1HT TIP3
148 50 2 -0.834000 0.705000 30.618999 2.551000 # 2OT TIP3
149 50 1 0.417000 1.731000 30.299000 2.660000 # 1HT TIP3
150 50 1 0.417000 0.341000 30.987000 3.498000 # 1HT TIP3
151 51 2 -0.834000 13.659000 16.082001 2.618000 # 2OT TIP3
152 51 1 0.417000 12.832000 16.764999 2.755000 # 1HT TIP3
153 51 1 0.417000 13.335000 15.076000 2.840000 # 1HT TIP3
154 52 2 -0.834000 32.855999 27.612000 4.590000 # 2OT TIP3
155 52 1 0.417000 33.645000 27.009001 4.164000 # 1HT TIP3
156 52 1 0.417000 32.161999 27.896999 3.815000 # 1HT TIP3
157 53 2 -0.834000 18.472000 26.416000 21.502001 # 2OT TIP3
158 53 1 0.417000 19.362000 25.837000 21.304001 # 1HT TIP3
159 53 1 0.417000 18.250999 27.039000 20.648001 # 1HT TIP3
160 54 2 -0.834000 11.537000 9.798000 13.369000 # 2OT TIP3
161 54 1 0.417000 10.934000 9.009000 12.944000 # 1HT TIP3
162 54 1 0.417000 11.401000 9.818000 14.440000 # 1HT TIP3
163 55 2 -0.834000 28.483000 28.481001 5.937000 # 2OT TIP3
164 55 1 0.417000 27.520000 28.046000 6.160000 # 1HT TIP3
165 55 1 0.417000 28.870001 28.972000 6.817000 # 1HT TIP3
166 56 2 -0.834000 29.841999 18.855000 17.041000 # 2OT TIP3
167 56 1 0.417000 30.778000 19.018000 16.527000 # 1HT TIP3
168 56 1 0.417000 29.031000 19.242001 16.441999 # 1HT TIP3
169 57 2 -0.834000 22.563999 3.344000 10.034000 # 2OT TIP3
170 57 1 0.417000 22.987000 2.776000 10.849000 # 1HT TIP3
171 57 1 0.417000 22.118999 2.669000 9.318000 # 1HT TIP3
172 58 2 -0.834000 34.976002 1.147000 19.698000 # 2OT TIP3
173 58 1 0.417000 35.596001 0.327000 19.367001 # 1HT TIP3
174 58 1 0.417000 35.596001 2.002000 19.919001 # 1HT TIP3
175 59 2 -0.834000 26.695000 15.537000 1.179000 # 2OT TIP3
176 59 1 0.417000 25.639000 15.761000 1.149000 # 1HT TIP3
177 59 1 0.417000 26.839001 14.530000 1.541000 # 1HT TIP3
178 60 2 -0.834000 29.708000 7.769000 14.674000 # 2OT TIP3
179 60 1 0.417000 29.895000 6.821000 14.192000 # 1HT TIP3
180 60 1 0.417000 30.047001 8.571000 14.034000 # 1HT TIP3
181 61 2 -0.834000 28.384001 23.990999 30.283001 # 2OT TIP3
182 61 1 0.417000 28.429001 25.065001 30.181999 # 1HT TIP3
183 61 1 0.417000 29.254999 23.548000 29.823000 # 1HT TIP3
184 62 2 -0.834000 17.160999 34.827000 35.490002 # 2OT TIP3
185 62 1 0.417000 17.966000 35.544998 35.529999 # 1HT TIP3
186 62 1 0.417000 17.047001 34.470001 34.477001 # 1HT TIP3
187 63 2 -0.834000 19.677999 30.021999 34.681000 # 2OT TIP3
188 63 1 0.417000 19.403000 29.480000 35.573002 # 1HT TIP3
189 63 1 0.417000 20.511000 30.674000 34.897999 # 1HT TIP3
190 64 2 -0.834000 32.304001 32.566002 19.216000 # 2OT TIP3
191 64 1 0.417000 31.780001 32.034000 19.997000 # 1HT TIP3
192 64 1 0.417000 33.328999 32.230000 19.177000 # 1HT TIP3
193 65 2 -0.834000 26.101000 18.855000 8.194000 # 2OT TIP3
194 65 1 0.417000 25.188999 18.855000 7.614000 # 1HT TIP3
195 65 1 0.417000 26.176001 17.931000 8.746000 # 1HT TIP3
196 66 2 -0.834000 4.560000 34.651001 2.680000 # 2OT TIP3
197 66 1 0.417000 4.566000 35.076000 1.687000 # 1HT TIP3
198 66 1 0.417000 4.541000 33.574001 2.610000 # 1HT TIP3
199 67 2 -0.834000 6.181000 0.706000 7.563000 # 2OT TIP3
200 67 1 0.417000 6.428000 -0.019000 6.801000 # 1HT TIP3
201 67 1 0.417000 5.902000 1.639000 7.096000 # 1HT TIP3
202 68 2 -0.834000 29.854000 9.031000 7.937000 # 2OT TIP3
203 68 1 0.417000 28.865000 9.432000 8.105000 # 1HT TIP3
204 68 1 0.417000 30.054001 8.997000 6.877000 # 1HT TIP3
205 69 2 -0.834000 12.940000 11.867000 14.880000 # 2OT TIP3
206 69 1 0.417000 13.945000 11.765000 14.497000 # 1HT TIP3
207 69 1 0.417000 12.806000 12.861000 15.278000 # 1HT TIP3
208 70 2 -0.834000 27.656000 13.090000 4.268000 # 2OT TIP3
209 70 1 0.417000 27.104000 12.225000 3.929000 # 1HT TIP3
210 70 1 0.417000 28.264999 13.467000 3.461000 # 1HT TIP3
211 71 2 -0.834000 22.275999 31.538000 8.086000 # 2OT TIP3
212 71 1 0.417000 21.900000 30.552000 7.855000 # 1HT TIP3
213 71 1 0.417000 22.580999 31.573999 9.120000 # 1HT TIP3
214 72 2 -0.834000 10.876000 0.153000 5.310000 # 2OT TIP3
215 72 1 0.417000 10.070000 0.808000 5.605000 # 1HT TIP3
216 72 1 0.417000 11.535000 -0.010000 6.150000 # 1HT TIP3
217 73 2 -0.834000 8.618000 25.955000 33.355000 # 2OT TIP3
218 73 1 0.417000 9.485000 25.767000 33.971001 # 1HT TIP3
219 73 1 0.417000 8.676000 25.354000 32.459999 # 1HT TIP3
220 74 2 -0.834000 27.471001 25.622999 1.673000 # 2OT TIP3
221 74 1 0.417000 27.730000 26.568001 1.219000 # 1HT TIP3
222 74 1 0.417000 28.285000 24.926001 1.544000 # 1HT TIP3
223 75 2 -0.834000 21.698000 33.669998 1.058000 # 2OT TIP3
224 75 1 0.417000 22.045000 34.636002 0.721000 # 1HT TIP3
225 75 1 0.417000 22.021999 33.506001 2.075000 # 1HT TIP3
226 76 2 -0.834000 1.784000 30.856001 25.372000 # 2OT TIP3
227 76 1 0.417000 1.037000 30.117001 25.621000 # 1HT TIP3
228 76 1 0.417000 1.641000 31.733000 25.985001 # 1HT TIP3
229 77 2 -0.834000 27.181999 9.147000 10.882000 # 2OT TIP3
230 77 1 0.417000 26.330000 9.733000 10.571000 # 1HT TIP3
231 77 1 0.417000 27.150999 8.182000 10.399000 # 1HT TIP3
232 78 2 -0.834000 34.054001 12.593000 6.721000 # 2OT TIP3
233 78 1 0.417000 33.493000 13.470000 6.435000 # 1HT TIP3
234 78 1 0.417000 33.456001 11.984000 7.383000 # 1HT TIP3
235 79 2 -0.834000 31.533001 21.422001 29.047001 # 2OT TIP3
236 79 1 0.417000 31.077000 21.910000 29.896000 # 1HT TIP3
237 79 1 0.417000 30.780001 21.219999 28.299999 # 1HT TIP3
238 80 2 -0.834000 3.591000 30.511999 5.071000 # 2OT TIP3
239 80 1 0.417000 2.866000 29.766001 4.780000 # 1HT TIP3
240 80 1 0.417000 3.119000 31.243000 5.711000 # 1HT TIP3
241 81 2 -0.834000 27.750999 2.261000 18.990000 # 2OT TIP3
242 81 1 0.417000 27.415001 3.036000 19.663000 # 1HT TIP3
243 81 1 0.417000 28.552000 2.641000 18.374001 # 1HT TIP3
244 82 2 -0.834000 16.653000 23.521999 17.669001 # 2OT TIP3
245 82 1 0.417000 16.632999 24.541000 17.311001 # 1HT TIP3
246 82 1 0.417000 16.511999 22.847000 16.837999 # 1HT TIP3
247 83 2 -0.834000 14.664000 14.190000 35.382000 # 2OT TIP3
248 83 1 0.417000 14.212000 13.238000 35.618999 # 1HT TIP3
249 83 1 0.417000 14.106000 14.666000 34.590000 # 1HT TIP3
250 84 2 -0.834000 7.618000 27.669001 16.919001 # 2OT TIP3
251 84 1 0.417000 7.267000 27.209999 17.832001 # 1HT TIP3
252 84 1 0.417000 7.777000 28.724001 17.084000 # 1HT TIP3
253 85 2 -0.834000 29.834000 25.709000 19.327999 # 2OT TIP3
254 85 1 0.417000 30.169001 26.704000 19.580999 # 1HT TIP3
255 85 1 0.417000 28.775000 25.625000 19.521999 # 1HT TIP3
256 86 2 -0.834000 17.760000 30.216000 30.837999 # 2OT TIP3
257 86 1 0.417000 17.143000 30.900999 30.275000 # 1HT TIP3
258 86 1 0.417000 18.014999 29.370001 30.219000 # 1HT TIP3
259 87 2 -0.834000 24.374001 17.607000 4.294000 # 2OT TIP3
260 87 1 0.417000 23.679001 18.063999 3.605000 # 1HT TIP3
261 87 1 0.417000 24.504999 18.247999 5.152000 # 1HT TIP3
262 88 2 -0.834000 17.934000 8.655000 19.302000 # 2OT TIP3
263 88 1 0.417000 17.622999 8.598000 20.334000 # 1HT TIP3
264 88 1 0.417000 17.294001 8.031000 18.697001 # 1HT TIP3
265 89 2 -0.834000 0.270000 22.073999 19.302999 # 2OT TIP3
266 89 1 0.417000 0.123000 21.120001 19.787001 # 1HT TIP3
267 89 1 0.417000 0.917000 22.690001 19.910000 # 1HT TIP3
268 90 2 -0.834000 11.309000 0.047000 9.863000 # 2OT TIP3
269 90 1 0.417000 12.153000 -0.001000 9.191000 # 1HT TIP3
270 90 1 0.417000 11.657000 -0.002000 10.883000 # 1HT TIP3
271 91 2 -0.834000 5.696000 16.552000 21.080999 # 2OT TIP3
272 91 1 0.417000 6.702000 16.308001 20.774000 # 1HT TIP3
273 91 1 0.417000 5.450000 17.549000 20.749001 # 1HT TIP3
274 92 2 -0.834000 5.528000 13.989000 21.212000 # 2OT TIP3
275 92 1 0.417000 4.649000 13.362000 21.249001 # 1HT TIP3
276 92 1 0.417000 5.574000 14.488000 20.256001 # 1HT TIP3
277 93 2 -0.834000 24.042999 18.292999 12.147000 # 2OT TIP3
278 93 1 0.417000 23.826000 19.014999 12.920000 # 1HT TIP3
279 93 1 0.417000 24.646000 17.497000 12.557000 # 1HT TIP3
280 94 2 -0.834000 3.882000 34.416000 27.698999 # 2OT TIP3
281 94 1 0.417000 4.675000 33.834000 27.254000 # 1HT TIP3
282 94 1 0.417000 4.126000 35.466000 27.636999 # 1HT TIP3
283 95 2 -0.834000 22.767000 32.625999 19.530001 # 2OT TIP3
284 95 1 0.417000 23.715000 33.098999 19.318001 # 1HT TIP3
285 95 1 0.417000 22.382000 32.994999 20.469000 # 1HT TIP3
286 96 2 -0.834000 1.030000 31.190001 29.125999 # 2OT TIP3
287 96 1 0.417000 -0.013000 30.910999 29.097000 # 1HT TIP3
288 96 1 0.417000 1.413000 31.256001 28.118999 # 1HT TIP3
289 97 2 -0.834000 11.036000 9.342000 29.471001 # 2OT TIP3
290 97 1 0.417000 11.611000 8.431000 29.393999 # 1HT TIP3
291 97 1 0.417000 10.578000 9.560000 28.518000 # 1HT TIP3
292 98 2 -0.834000 21.396999 34.799000 4.705000 # 2OT TIP3
293 98 1 0.417000 21.656000 35.014999 3.679000 # 1HT TIP3
294 98 1 0.417000 20.364000 34.491001 4.759000 # 1HT TIP3
295 99 2 -0.834000 12.998000 14.078000 6.658000 # 2OT TIP3
296 99 1 0.417000 13.221000 13.354000 7.427000 # 1HT TIP3
297 99 1 0.417000 11.948000 14.030000 6.411000 # 1HT TIP3
298 100 2 -0.834000 0.300000 13.355000 1.712000 # 2OT TIP3
299 100 1 0.417000 -0.001000 12.436000 2.195000 # 1HT TIP3
300 100 1 0.417000 1.317000 13.261000 1.362000 # 1HT TIP3
301 101 2 -0.834000 6.719000 9.170000 15.813000 # 2OT TIP3
302 101 1 0.417000 5.709000 9.147000 16.195000 # 1HT TIP3
303 101 1 0.417000 7.362000 8.592000 16.459999 # 1HT TIP3
304 102 2 -0.834000 26.749001 1.047000 27.822001 # 2OT TIP3
305 102 1 0.417000 26.056000 1.494000 27.124001 # 1HT TIP3
306 102 1 0.417000 26.865999 -0.001000 27.591999 # 1HT TIP3
307 103 2 -0.834000 22.868999 5.658000 19.813000 # 2OT TIP3
308 103 1 0.417000 22.173000 5.030000 20.349001 # 1HT TIP3
309 103 1 0.417000 22.444000 5.935000 18.860001 # 1HT TIP3
310 104 2 -0.834000 26.145000 26.903000 19.965000 # 2OT TIP3
311 104 1 0.417000 26.292999 26.916000 21.035000 # 1HT TIP3
312 104 1 0.417000 25.299999 27.525999 19.709999 # 1HT TIP3
313 105 2 -0.834000 30.344999 7.605000 9.760000 # 2OT TIP3
314 105 1 0.417000 30.913000 8.520000 9.842000 # 1HT TIP3
315 105 1 0.417000 30.846001 6.930000 9.083000 # 1HT TIP3
316 106 2 -0.834000 26.917000 25.110001 28.440001 # 2OT TIP3
317 106 1 0.417000 26.554001 24.343000 29.108999 # 1HT TIP3
318 106 1 0.417000 26.785999 26.079000 28.899000 # 1HT TIP3
319 107 2 -0.834000 22.344999 22.723000 22.558001 # 2OT TIP3
320 107 1 0.417000 22.789000 23.146000 23.447001 # 1HT TIP3
321 107 1 0.417000 22.221001 23.497000 21.815001 # 1HT TIP3
322 108 2 -0.834000 32.522999 31.179001 24.136999 # 2OT TIP3
323 108 1 0.417000 33.514999 30.799000 24.330999 # 1HT TIP3
324 108 1 0.417000 31.857000 30.356001 23.924000 # 1HT TIP3
325 109 2 -0.834000 12.125000 26.354000 0.711000 # 2OT TIP3
326 109 1 0.417000 12.532000 27.240000 0.245000 # 1HT TIP3
327 109 1 0.417000 11.514000 25.820999 -0.002000 # 1HT TIP3
328 110 2 -0.834000 4.184000 14.295000 24.146000 # 2OT TIP3
329 110 1 0.417000 3.197000 13.952000 23.872000 # 1HT TIP3
330 110 1 0.417000 4.817000 14.306000 23.271999 # 1HT TIP3
331 111 2 -0.834000 14.375000 24.857000 14.355000 # 2OT TIP3
332 111 1 0.417000 15.426000 24.969999 14.579000 # 1HT TIP3
333 111 1 0.417000 13.828000 25.694000 14.763000 # 1HT TIP3
334 112 2 -0.834000 31.940001 33.536999 23.610001 # 2OT TIP3
335 112 1 0.417000 32.793999 33.359001 24.247999 # 1HT TIP3
336 112 1 0.417000 32.042999 32.960999 22.702999 # 1HT TIP3
337 113 2 -0.834000 6.256000 23.561001 3.327000 # 2OT TIP3
338 113 1 0.417000 6.476000 22.511000 3.456000 # 1HT TIP3
339 113 1 0.417000 6.154000 23.780001 2.274000 # 1HT TIP3
340 114 2 -0.834000 18.597000 30.152000 15.434000 # 2OT TIP3
341 114 1 0.417000 18.969999 29.149000 15.290000 # 1HT TIP3
342 114 1 0.417000 18.229000 30.537001 14.495000 # 1HT TIP3
343 115 2 -0.834000 34.883999 15.564000 26.955999 # 2OT TIP3
344 115 1 0.417000 35.126999 16.587999 27.198999 # 1HT TIP3
345 115 1 0.417000 33.821999 15.479000 26.777000 # 1HT TIP3
346 116 2 -0.834000 29.124001 8.054000 17.583000 # 2OT TIP3
347 116 1 0.417000 28.687000 8.206000 18.559999 # 1HT TIP3
348 116 1 0.417000 29.339001 9.011000 17.132999 # 1HT TIP3
349 117 2 -0.834000 1.615000 14.034000 11.666000 # 2OT TIP3
350 117 1 0.417000 0.708000 14.562000 11.409000 # 1HT TIP3
351 117 1 0.417000 1.911000 13.404000 10.842000 # 1HT TIP3
352 118 2 -0.834000 17.910999 22.473000 14.613000 # 2OT TIP3
353 118 1 0.417000 18.474001 22.202000 15.494000 # 1HT TIP3
354 118 1 0.417000 17.782000 21.604000 13.986000 # 1HT TIP3
355 119 2 -0.834000 33.433998 25.108000 33.306999 # 2OT TIP3
356 119 1 0.417000 33.528999 26.045000 33.835999 # 1HT TIP3
357 119 1 0.417000 34.083000 24.372000 33.757000 # 1HT TIP3
358 120 2 -0.834000 34.226002 11.725000 23.799000 # 2OT TIP3
359 120 1 0.417000 33.479000 11.578000 24.565001 # 1HT TIP3
360 120 1 0.417000 33.874001 11.306000 22.868000 # 1HT TIP3
361 121 2 -0.834000 34.122002 27.608999 13.632000 # 2OT TIP3
362 121 1 0.417000 34.811001 27.044001 13.021000 # 1HT TIP3
363 121 1 0.417000 34.194000 28.657000 13.382000 # 1HT TIP3
364 122 2 -0.834000 29.666000 1.649000 19.992001 # 2OT TIP3
365 122 1 0.417000 30.066999 0.650000 20.077000 # 1HT TIP3
366 122 1 0.417000 29.427999 2.027000 20.974001 # 1HT TIP3
367 123 2 -0.834000 28.826000 28.773001 19.164000 # 2OT TIP3
368 123 1 0.417000 29.650000 28.603001 18.487000 # 1HT TIP3
369 123 1 0.417000 28.177999 27.909000 19.167000 # 1HT TIP3
370 124 2 -0.834000 1.993000 25.386999 1.115000 # 2OT TIP3
371 124 1 0.417000 1.378000 25.200001 0.247000 # 1HT TIP3
372 124 1 0.417000 2.313000 24.448000 1.539000 # 1HT TIP3
373 125 2 -0.834000 9.563000 10.274000 10.051000 # 2OT TIP3
374 125 1 0.417000 9.257000 9.318000 10.452000 # 1HT TIP3
375 125 1 0.417000 10.187000 10.117000 9.184000 # 1HT TIP3
376 126 2 -0.834000 23.375000 30.896999 33.396000 # 2OT TIP3
377 126 1 0.417000 22.511999 30.982000 34.040001 # 1HT TIP3
378 126 1 0.417000 23.558001 29.856001 33.174999 # 1HT TIP3
379 127 2 -0.834000 17.802000 3.179000 33.480000 # 2OT TIP3
380 127 1 0.417000 18.298000 2.247000 33.251999 # 1HT TIP3
381 127 1 0.417000 17.886999 3.847000 32.636002 # 1HT TIP3
382 128 2 -0.834000 3.645000 32.712002 35.286999 # 2OT TIP3
383 128 1 0.417000 3.497000 32.292999 34.301998 # 1HT TIP3
384 128 1 0.417000 4.323000 33.549000 35.223999 # 1HT TIP3
385 129 2 -0.834000 11.421000 19.634001 19.546000 # 2OT TIP3
386 129 1 0.417000 10.657000 19.330000 18.846001 # 1HT TIP3
387 129 1 0.417000 11.098000 20.521000 20.070000 # 1HT TIP3
388 130 2 -0.834000 20.160000 21.260000 6.440000 # 2OT TIP3
389 130 1 0.417000 19.148001 21.402000 6.791000 # 1HT TIP3
390 130 1 0.417000 20.853001 21.497000 7.234000 # 1HT TIP3
391 131 2 -0.834000 0.157000 27.549999 31.128000 # 2OT TIP3
392 131 1 0.417000 -0.012000 26.534000 31.455000 # 1HT TIP3
393 131 1 0.417000 -0.002000 28.225000 31.955999 # 1HT TIP3
394 132 2 -0.834000 25.410000 8.109000 35.132000 # 2OT TIP3
395 132 1 0.417000 26.281000 8.691000 34.868999 # 1HT TIP3
396 132 1 0.417000 24.716999 8.104000 34.305000 # 1HT TIP3
397 133 2 -0.834000 9.719000 34.431000 31.989000 # 2OT TIP3
398 133 1 0.417000 10.223000 34.971001 32.777000 # 1HT TIP3
399 133 1 0.417000 9.124000 33.639000 32.418999 # 1HT TIP3
400 134 2 -0.834000 13.252000 2.113000 3.562000 # 2OT TIP3
401 134 1 0.417000 13.730000 1.152000 3.449000 # 1HT TIP3
402 134 1 0.417000 12.202000 2.023000 3.324000 # 1HT TIP3
403 135 2 -0.834000 2.636000 6.184000 6.534000 # 2OT TIP3
404 135 1 0.417000 1.755000 6.486000 5.987000 # 1HT TIP3
405 135 1 0.417000 3.484000 6.162000 5.866000 # 1HT TIP3
406 136 2 -0.834000 34.345001 14.705000 29.412001 # 2OT TIP3
407 136 1 0.417000 33.785999 14.227000 28.622000 # 1HT TIP3
408 136 1 0.417000 34.541000 15.733000 29.143000 # 1HT TIP3
409 137 2 -0.834000 19.996000 27.268000 22.908001 # 2OT TIP3
410 137 1 0.417000 19.367001 26.658001 23.539000 # 1HT TIP3
411 137 1 0.417000 19.929001 28.299000 23.222000 # 1HT TIP3
412 138 2 -0.834000 12.186000 0.011000 2.375000 # 2OT TIP3
413 138 1 0.417000 11.771000 0.098000 1.382000 # 1HT TIP3
414 138 1 0.417000 11.386000 -0.007000 3.100000 # 1HT TIP3
415 139 2 -0.834000 3.096000 3.606000 6.709000 # 2OT TIP3
416 139 1 0.417000 2.458000 2.944000 6.142000 # 1HT TIP3
417 139 1 0.417000 4.102000 3.557000 6.321000 # 1HT TIP3
418 140 2 -0.834000 31.162001 19.903000 8.990000 # 2OT TIP3
419 140 1 0.417000 30.308001 20.198999 9.582000 # 1HT TIP3
420 140 1 0.417000 31.204000 18.826000 8.931000 # 1HT TIP3
421 141 2 -0.834000 4.299000 22.115999 18.025999 # 2OT TIP3
422 141 1 0.417000 5.368000 22.271000 18.052999 # 1HT TIP3
423 141 1 0.417000 4.040000 21.280001 18.658001 # 1HT TIP3
424 142 2 -0.834000 17.933001 9.901000 27.596001 # 2OT TIP3
425 142 1 0.417000 18.719999 10.016000 26.865000 # 1HT TIP3
426 142 1 0.417000 18.299999 9.325000 28.431999 # 1HT TIP3
427 143 2 -0.834000 31.334000 12.314000 26.202999 # 2OT TIP3
428 143 1 0.417000 32.199001 12.266000 26.849001 # 1HT TIP3
429 143 1 0.417000 30.542000 11.707000 26.615000 # 1HT TIP3
430 144 2 -0.834000 18.340000 25.469000 32.236000 # 2OT TIP3
431 144 1 0.417000 19.323000 25.021000 32.252998 # 1HT TIP3
432 144 1 0.417000 18.031000 25.622000 31.212999 # 1HT TIP3
433 145 2 -0.834000 13.803000 25.589001 25.242001 # 2OT TIP3
434 145 1 0.417000 13.183000 26.341999 24.778999 # 1HT TIP3
435 145 1 0.417000 14.597000 25.309999 24.566000 # 1HT TIP3
436 146 2 -0.834000 10.246000 13.757000 12.572000 # 2OT TIP3
437 146 1 0.417000 10.466000 12.837000 13.093000 # 1HT TIP3
438 146 1 0.417000 10.341000 14.589000 13.254000 # 1HT TIP3
439 147 2 -0.834000 2.742000 34.974998 7.233000 # 2OT TIP3
440 147 1 0.417000 3.344000 35.596001 7.879000 # 1HT TIP3
441 147 1 0.417000 2.213000 35.596001 6.526000 # 1HT TIP3
442 148 2 -0.834000 14.550000 28.322001 25.712999 # 2OT TIP3
443 148 1 0.417000 13.979000 27.670000 26.358000 # 1HT TIP3
444 148 1 0.417000 15.357000 28.768000 26.275000 # 1HT TIP3
445 149 2 -0.834000 26.816000 35.601002 24.306000 # 2OT TIP3
446 149 1 0.417000 27.209999 35.615002 23.299999 # 1HT TIP3
447 149 1 0.417000 26.959999 34.620998 24.736000 # 1HT TIP3
448 150 2 -0.834000 13.079000 31.854000 33.834999 # 2OT TIP3
449 150 1 0.417000 14.066000 31.690001 34.241001 # 1HT TIP3
450 150 1 0.417000 12.383000 32.028999 34.641998 # 1HT TIP3
451 151 2 -0.834000 11.727000 29.532000 20.167000 # 2OT TIP3
452 151 1 0.417000 12.071000 30.230000 20.916000 # 1HT TIP3
453 151 1 0.417000 11.441000 30.072001 19.277000 # 1HT TIP3
454 152 2 -0.834000 6.567000 16.573000 31.931999 # 2OT TIP3
455 152 1 0.417000 6.652000 15.533000 31.650999 # 1HT TIP3
456 152 1 0.417000 7.521000 16.927000 32.292999 # 1HT TIP3
457 153 2 -0.834000 28.770000 13.486000 23.471001 # 2OT TIP3
458 153 1 0.417000 28.965000 12.661000 24.141001 # 1HT TIP3
459 153 1 0.417000 27.768000 13.854000 23.634001 # 1HT TIP3
460 154 2 -0.834000 7.605000 24.360001 19.298000 # 2OT TIP3
461 154 1 0.417000 8.608000 23.985001 19.156000 # 1HT TIP3
462 154 1 0.417000 6.906000 23.719000 18.782000 # 1HT TIP3
463 155 2 -0.834000 24.035000 21.483999 11.924000 # 2OT TIP3
464 155 1 0.417000 24.250999 21.665001 10.881000 # 1HT TIP3
465 155 1 0.417000 23.871000 22.424999 12.427000 # 1HT TIP3
466 156 2 -0.834000 27.153000 28.076000 35.542999 # 2OT TIP3
467 156 1 0.417000 27.643999 27.294001 34.981998 # 1HT TIP3
468 156 1 0.417000 26.094999 27.867001 35.601002 # 1HT TIP3
469 157 2 -0.834000 1.939000 4.515000 15.258000 # 2OT TIP3
470 157 1 0.417000 1.896000 3.618000 14.659000 # 1HT TIP3
471 157 1 0.417000 2.304000 4.272000 16.245001 # 1HT TIP3
472 158 2 -0.834000 21.912001 15.793000 32.432999 # 2OT TIP3
473 158 1 0.417000 21.167999 16.117001 33.146000 # 1HT TIP3
474 158 1 0.417000 22.898001 15.953000 32.842999 # 1HT TIP3
475 159 2 -0.834000 8.689000 3.288000 14.870000 # 2OT TIP3
476 159 1 0.417000 9.097000 3.394000 13.875000 # 1HT TIP3
477 159 1 0.417000 7.961000 4.066000 15.044000 # 1HT TIP3
478 160 2 -0.834000 14.881000 16.646999 18.256001 # 2OT TIP3
479 160 1 0.417000 15.772000 16.777000 17.659000 # 1HT TIP3
480 160 1 0.417000 14.468000 15.666000 18.077000 # 1HT TIP3
481 161 2 -0.834000 34.730000 0.313000 25.128000 # 2OT TIP3
482 161 1 0.417000 33.734001 -0.003000 25.400999 # 1HT TIP3
483 161 1 0.417000 35.202999 0.786000 25.975000 # 1HT TIP3
484 162 2 -0.834000 34.277000 2.568000 33.737999 # 2OT TIP3
485 162 1 0.417000 34.460999 1.839000 32.963001 # 1HT TIP3
486 162 1 0.417000 34.133999 2.063000 34.681000 # 1HT TIP3
487 163 2 -0.834000 26.483000 1.125000 3.479000 # 2OT TIP3
488 163 1 0.417000 26.701000 1.978000 2.854000 # 1HT TIP3
489 163 1 0.417000 27.051001 1.195000 4.395000 # 1HT TIP3
490 164 2 -0.834000 20.193001 29.989000 1.888000 # 2OT TIP3
491 164 1 0.417000 19.115000 29.972000 1.959000 # 1HT TIP3
492 164 1 0.417000 20.488001 29.840000 0.860000 # 1HT TIP3
493 165 2 -0.834000 34.965000 0.775000 28.191000 # 2OT TIP3
494 165 1 0.417000 35.612999 -0.059000 27.965000 # 1HT TIP3
495 165 1 0.417000 35.535999 1.690000 28.174000 # 1HT TIP3
496 166 2 -0.834000 0.938000 25.750000 22.702999 # 2OT TIP3
497 166 1 0.417000 -0.000000 26.219000 22.959000 # 1HT TIP3
498 166 1 0.417000 1.642000 25.888000 23.510000 # 1HT TIP3
499 167 2 -0.834000 4.320000 2.387000 8.428000 # 2OT TIP3
500 167 1 0.417000 4.823000 1.638000 9.021000 # 1HT TIP3
501 167 1 0.417000 3.464000 2.761000 8.970000 # 1HT TIP3
502 168 2 -0.834000 21.296000 9.804000 25.332001 # 2OT TIP3