LAMMPS data file. CGCMM style. atom_style full generated by VMD/TopoTools v1.7 on Mon Feb 13 18:48:57 IST 2023
 6000 atoms
 4500 bonds
 1500 angles
 0 dihedrals
 0 impropers
 3 atom types
 2 bond types
 1 angle types
 0 dihedral types
 0 improper types
  -0.0310 35.5010  xlo xhi
  -0.0340 35.5560  ylo yhi
  -0.0670 35.5550  zlo zhi

# Pair Coeffs
#
# 1  1HT
# 2  2OT
# 3  3MO

# Bond Coeffs
#
# 1  1HT-2OT
# 2  2OT-3MO

# Angle Coeffs
#
# 1  1HT-2OT-1HT

 Masses

 1 1.007940 # 1HT
 2 15.999400 # 2OT
 3 1.007940 # 3MO

 Atoms # full

1 1 2 0.556400 27.854000 14.856000 7.810000 # 2OT TIP4
2 1 1 0.000000 27.570999 14.057000 7.142000 # 1HT TIP4
3 1 1 0.000000 27.086000 15.615000 7.810000 # 1HT TIP4
4 1 3 -1.112800 27.870001 14.847000 7.796000 # 3MO TIP4
5 2 2 0.556400 10.809000 17.754999 14.380000 # 2OT TIP4
6 2 1 0.000000 10.903000 17.069000 13.550000 # 1HT TIP4
7 2 1 0.000000 11.791000 18.025999 14.736000 # 1HT TIP4
8 2 3 -1.112800 10.794000 17.736000 14.378000 # 3MO TIP4
9 3 2 0.556400 18.794001 0.027000 15.210000 # 2OT TIP4
10 3 1 0.000000 17.898001 0.189000 14.630000 # 1HT TIP4
11 3 1 0.000000 19.440001 0.888000 15.123000 # 1HT TIP4
12 3 3 -1.112800 18.785000 0.010000 15.197000 # 3MO TIP4
13 4 2 0.556400 27.204000 6.000000 15.769000 # 2OT TIP4
14 4 1 0.000000 26.643999 6.033000 16.691999 # 1HT TIP4
15 4 1 0.000000 28.183001 6.427000 15.926000 # 1HT TIP4
16 4 3 -1.112800 27.181000 6.006000 15.768000 # 3MO TIP4
17 5 2 0.556400 25.650000 11.051000 33.922001 # 2OT TIP4
18 5 1 0.000000 26.208000 11.464000 34.749001 # 1HT TIP4
19 5 1 0.000000 26.322001 10.838000 33.104000 # 1HT TIP4
20 5 3 -1.112800 25.641001 11.069000 33.933998 # 3MO TIP4
21 6 2 0.556400 11.327000 33.050999 1.179000 # 2OT TIP4
22 6 1 0.000000 10.481000 32.391998 1.305000 # 1HT TIP4
23 6 1 0.000000 11.361000 33.754002 1.997000 # 1HT TIP4
24 6 3 -1.112800 11.314000 33.044998 1.160000 # 3MO TIP4
25 7 2 0.556400 17.392000 32.063999 11.195000 # 2OT TIP4
26 7 1 0.000000 16.870001 32.951000 11.524000 # 1HT TIP4
27 7 1 0.000000 17.702000 31.489000 12.054000 # 1HT TIP4
28 7 3 -1.112800 17.396000 32.084999 11.185000 # 3MO TIP4
29 8 2 0.556400 34.705002 24.285999 26.073999 # 2OT TIP4
30 8 1 0.000000 34.418999 24.583000 25.076000 # 1HT TIP4
31 8 1 0.000000 33.820000 24.136000 26.673000 # 1HT TIP4
32 8 3 -1.112800 34.716999 24.302999 26.063000 # 3MO TIP4
33 9 2 0.556400 20.983000 18.524000 34.439999 # 2OT TIP4
34 9 1 0.000000 20.125999 18.172001 33.884998 # 1HT TIP4
35 9 1 0.000000 20.754999 18.521000 35.494999 # 1HT TIP4
36 9 3 -1.112800 20.976999 18.535000 34.419998 # 3MO TIP4
37 10 2 0.556400 33.209000 32.423000 32.354000 # 2OT TIP4
38 10 1 0.000000 32.619999 32.462002 31.448999 # 1HT TIP4
39 10 1 0.000000 32.833000 33.148998 33.058998 # 1HT TIP4
40 10 3 -1.112800 33.219002 32.422001 32.333000 # 3MO TIP4
41 11 2 0.556400 3.980000 13.861000 15.624000 # 2OT TIP4
42 11 1 0.000000 3.980000 14.572000 16.436001 # 1HT TIP4
43 11 1 0.000000 4.219000 14.368000 14.701000 # 1HT TIP4
44 11 3 -1.112800 3.963000 13.860000 15.640000 # 3MO TIP4
45 12 2 0.556400 10.958000 16.035000 1.147000 # 2OT TIP4
46 12 1 0.000000 11.877000 15.559000 0.837000 # 1HT TIP4
47 12 1 0.000000 10.454000 16.441000 0.282000 # 1HT TIP4
48 12 3 -1.112800 10.978000 16.038000 1.159000 # 3MO TIP4
49 13 2 0.556400 12.805000 25.004999 4.764000 # 2OT TIP4
50 13 1 0.000000 13.261000 24.632000 3.859000 # 1HT TIP4
51 13 1 0.000000 13.519000 24.959000 5.573000 # 1HT TIP4
52 13 3 -1.112800 12.793000 24.990000 4.750000 # 3MO TIP4
53 14 2 0.556400 31.878000 22.860001 12.001000 # 2OT TIP4
54 14 1 0.000000 32.702000 23.007999 12.683000 # 1HT TIP4
55 14 1 0.000000 31.205999 22.118000 12.405000 # 1HT TIP4
56 14 3 -1.112800 31.900000 22.862000 11.992000 # 3MO TIP4
57 15 2 0.556400 11.139000 25.437000 35.027000 # 2OT TIP4
58 15 1 0.000000 11.579000 24.669001 34.408001 # 1HT TIP4
59 15 1 0.000000 10.910000 26.299999 34.422001 # 1HT TIP4
60 15 3 -1.112800 11.158000 25.424999 35.035000 # 3MO TIP4
61 16 2 0.556400 7.780000 4.453000 28.374001 # 2OT TIP4
62 16 1 0.000000 6.741000 4.272000 28.141001 # 1HT TIP4
63 16 1 0.000000 8.385000 4.244000 27.504999 # 1HT TIP4
64 16 3 -1.112800 7.766000 4.442000 28.389000 # 3MO TIP4
65 17 2 0.556400 24.079000 8.312000 14.969000 # 2OT TIP4
66 17 1 0.000000 23.660999 8.368000 13.974000 # 1HT TIP4
67 17 1 0.000000 23.600000 7.516000 15.518000 # 1HT TIP4
68 17 3 -1.112800 24.073999 8.333000 14.959000 # 3MO TIP4
69 18 2 0.556400 11.044000 7.831000 26.879000 # 2OT TIP4
70 18 1 0.000000 11.039000 8.149000 25.846001 # 1HT TIP4
71 18 1 0.000000 12.022000 8.005000 27.304001 # 1HT TIP4
72 18 3 -1.112800 11.034000 7.818000 26.862000 # 3MO TIP4
73 19 2 0.556400 33.451000 20.159000 14.346000 # 2OT TIP4
74 19 1 0.000000 32.603001 19.701000 13.858000 # 1HT TIP4
75 19 1 0.000000 34.326000 20.055000 13.721000 # 1HT TIP4
76 19 3 -1.112800 33.436001 20.146000 14.358000 # 3MO TIP4
77 20 2 0.556400 31.853001 30.465000 32.306000 # 2OT TIP4
78 20 1 0.000000 32.636002 30.056999 31.683001 # 1HT TIP4
79 20 1 0.000000 32.202000 30.531000 33.326000 # 1HT TIP4
80 20 3 -1.112800 31.848000 30.448999 32.290001 # 3MO TIP4
81 21 2 0.556400 19.812000 17.955000 26.964001 # 2OT TIP4
82 21 1 0.000000 20.730000 17.900999 27.531000 # 1HT TIP4
83 21 1 0.000000 19.433001 16.958000 26.797001 # 1HT TIP4
84 21 3 -1.112800 19.830000 17.969000 26.958000 # 3MO TIP4
85 22 2 0.556400 1.867000 21.363001 23.580000 # 2OT TIP4
86 22 1 0.000000 1.783000 20.711000 22.723000 # 1HT TIP4
87 22 1 0.000000 1.105000 22.125999 23.528000 # 1HT TIP4
88 22 3 -1.112800 1.886000 21.356001 23.569000 # 3MO TIP4
89 23 2 0.556400 24.028000 3.599000 3.762000 # 2OT TIP4
90 23 1 0.000000 24.922001 3.004000 3.646000 # 1HT TIP4
91 23 1 0.000000 23.399000 3.160000 4.522000 # 1HT TIP4
92 23 3 -1.112800 24.035999 3.595000 3.741000 # 3MO TIP4
93 24 2 0.556400 9.346000 35.387001 26.291000 # 2OT TIP4
94 24 1 0.000000 8.710000 35.071999 25.476999 # 1HT TIP4
95 24 1 0.000000 8.752000 35.516998 27.183001 # 1HT TIP4
96 24 3 -1.112800 9.349000 35.396999 26.270000 # 3MO TIP4
97 25 2 0.556400 2.359000 0.285000 4.993000 # 2OT TIP4
98 25 1 0.000000 2.671000 1.317000 5.065000 # 1HT TIP4
99 25 1 0.000000 1.470000 0.135000 5.586000 # 1HT TIP4
100 25 3 -1.112800 2.382000 0.290000 4.996000 # 3MO TIP4
101 26 2 0.556400 21.101999 24.885000 16.915001 # 2OT TIP4
102 26 1 0.000000 20.393999 24.615000 17.684000 # 1HT TIP4
103 26 1 0.000000 20.590000 24.976000 15.969000 # 1HT TIP4
104 26 3 -1.112800 21.108000 24.868999 16.931000 # 3MO TIP4
105 27 2 0.556400 0.500000 32.269001 31.322001 # 2OT TIP4
106 27 1 0.000000 -0.019000 32.662998 30.461000 # 1HT TIP4
107 27 1 0.000000 0.398000 32.955002 32.150002 # 1HT TIP4
108 27 3 -1.112800 0.510000 32.268002 31.301001 # 3MO TIP4
109 28 2 0.556400 22.547001 13.633000 29.348000 # 2OT TIP4
110 28 1 0.000000 22.018000 14.558000 29.525999 # 1HT TIP4
111 28 1 0.000000 23.607000 13.830000 29.289000 # 1HT TIP4
112 28 3 -1.112800 22.527000 13.638000 29.336000 # 3MO TIP4
113 29 2 0.556400 8.531000 32.410999 11.728000 # 2OT TIP4
114 29 1 0.000000 8.698000 31.354000 11.879000 # 1HT TIP4
115 29 1 0.000000 7.697000 32.733002 12.333000 # 1HT TIP4
116 29 3 -1.112800 8.536000 32.396999 11.710000 # 3MO TIP4
117 30 2 0.556400 13.507000 33.027000 0.610000 # 2OT TIP4
118 30 1 0.000000 13.777000 33.127998 1.651000 # 1HT TIP4
119 30 1 0.000000 14.368000 33.236000 -0.007000 # 1HT TIP4
120 30 3 -1.112800 13.493000 33.036999 0.624000 # 3MO TIP4
121 31 2 0.556400 0.624000 2.917000 17.660000 # 2OT TIP4
122 31 1 0.000000 1.587000 2.524000 17.952000 # 1HT TIP4
123 31 1 0.000000 0.576000 2.988000 16.583000 # 1HT TIP4
124 31 3 -1.112800 0.636000 2.927000 17.677999 # 3MO TIP4
125 32 2 0.556400 9.126000 1.955000 8.349000 # 2OT TIP4
126 32 1 0.000000 8.582000 2.882000 8.238000 # 1HT TIP4
127 32 1 0.000000 9.134000 1.664000 9.388000 # 1HT TIP4
128 32 3 -1.112800 9.135000 1.972000 8.335000 # 3MO TIP4
129 33 2 0.556400 16.462999 19.636000 20.577999 # 2OT TIP4
130 33 1 0.000000 15.595000 19.948999 21.139000 # 1HT TIP4
131 33 1 0.000000 17.326000 20.193001 20.910000 # 1HT TIP4
132 33 3 -1.112800 16.443001 19.639000 20.566999 # 3MO TIP4
133 34 2 0.556400 10.664000 11.645000 30.552999 # 2OT TIP4
134 34 1 0.000000 10.828000 11.717000 29.488001 # 1HT TIP4
135 34 1 0.000000 10.460000 12.627000 30.954000 # 1HT TIP4
136 34 3 -1.112800 10.681000 11.633000 30.542999 # 3MO TIP4
137 35 2 0.556400 0.988000 33.227001 27.900000 # 2OT TIP4
138 35 1 0.000000 -0.006000 33.125000 28.309999 # 1HT TIP4
139 35 1 0.000000 1.027000 32.755001 26.930000 # 1HT TIP4
140 35 3 -1.112800 0.986000 33.221001 27.923000 # 3MO TIP4
141 36 2 0.556400 26.855000 3.961000 28.785000 # 2OT TIP4
142 36 1 0.000000 27.549000 3.540000 28.072001 # 1HT TIP4
143 36 1 0.000000 26.938000 5.037000 28.775999 # 1HT TIP4
144 36 3 -1.112800 26.867001 3.942000 28.791000 # 3MO TIP4
145 37 2 0.556400 14.201000 1.081000 0.533000 # 2OT TIP4
146 37 1 0.000000 13.254000 0.704000 0.177000 # 1HT TIP4
147 37 1 0.000000 14.407000 0.673000 1.511000 # 1HT TIP4
148 37 3 -1.112800 14.186000 1.096000 0.522000 # 3MO TIP4
149 38 2 0.556400 21.163000 15.741000 7.544000 # 2OT TIP4
150 38 1 0.000000 20.745001 16.719999 7.361000 # 1HT TIP4
151 38 1 0.000000 21.641001 15.380000 6.646000 # 1HT TIP4
152 38 3 -1.112800 21.142000 15.746000 7.552000 # 3MO TIP4
153 39 2 0.556400 20.716000 21.458000 14.089000 # 2OT TIP4
154 39 1 0.000000 21.337000 20.902000 14.776000 # 1HT TIP4
155 39 1 0.000000 20.655001 22.487000 14.412000 # 1HT TIP4
156 39 3 -1.112800 20.709999 21.437000 14.096000 # 3MO TIP4
157 40 2 0.556400 21.441999 29.584999 16.305000 # 2OT TIP4
158 40 1 0.000000 20.434999 29.216999 16.437000 # 1HT TIP4
159 40 1 0.000000 21.867001 29.158001 15.409000 # 1HT TIP4
160 40 3 -1.112800 21.434000 29.579000 16.326000 # 3MO TIP4
161 41 2 0.556400 7.763000 32.396999 9.562000 # 2OT TIP4
162 41 1 0.000000 7.696000 33.432999 9.857000 # 1HT TIP4
163 41 1 0.000000 7.618000 32.316002 8.495000 # 1HT TIP4
164 41 3 -1.112800 7.752000 32.402000 9.581000 # 3MO TIP4
165 42 2 0.556400 15.918000 16.035000 0.512000 # 2OT TIP4
166 42 1 0.000000 15.747000 17.052000 0.834000 # 1HT TIP4
167 42 1 0.000000 16.382999 15.477000 1.311000 # 1HT TIP4
168 42 3 -1.112800 15.923000 16.052999 0.497000 # 3MO TIP4
169 43 2 0.556400 9.802000 8.479000 5.063000 # 2OT TIP4
170 43 1 0.000000 9.248000 7.786000 5.679000 # 1HT TIP4
171 43 1 0.000000 9.411000 9.476000 5.201000 # 1HT TIP4
172 43 3 -1.112800 9.796000 8.458000 5.054000 # 3MO TIP4
173 44 2 0.556400 31.958000 4.828000 26.844000 # 2OT TIP4
174 44 1 0.000000 32.671001 5.626000 26.992001 # 1HT TIP4
175 44 1 0.000000 31.163000 4.917000 27.569000 # 1HT TIP4
176 44 3 -1.112800 31.981001 4.824000 26.843000 # 3MO TIP4
177 45 2 0.556400 1.180000 7.487000 30.431000 # 2OT TIP4
178 45 1 0.000000 2.119000 7.033000 30.149000 # 1HT TIP4
179 45 1 0.000000 0.553000 7.588000 29.558001 # 1HT TIP4
180 45 3 -1.112800 1.200000 7.495000 30.440001 # 3MO TIP4
181 46 2 0.556400 7.317000 18.576000 11.836000 # 2OT TIP4
182 46 1 0.000000 6.262000 18.393999 11.977000 # 1HT TIP4
183 46 1 0.000000 7.667000 18.021999 10.978000 # 1HT TIP4
184 46 3 -1.112800 7.309000 18.573000 11.858000 # 3MO TIP4
185 47 2 0.556400 23.621000 4.815000 24.847000 # 2OT TIP4
186 47 1 0.000000 24.368999 5.567000 25.055000 # 1HT TIP4
187 47 1 0.000000 22.784000 5.271000 24.339001 # 1HT TIP4
188 47 3 -1.112800 23.632000 4.816000 24.867001 # 3MO TIP4
189 48 2 0.556400 32.512001 22.035999 15.448000 # 2OT TIP4
190 48 1 0.000000 31.764000 21.834000 16.201000 # 1HT TIP4
191 48 1 0.000000 32.088001 21.879999 14.468000 # 1HT TIP4
192 48 3 -1.112800 32.518002 22.024000 15.467000 # 3MO TIP4
193 49 2 0.556400 7.656000 3.458000 35.146999 # 2OT TIP4
194 49 1 0.000000 6.657000 3.705000 35.476002 # 1HT TIP4
195 49 1 0.000000 8.283000 4.334000 35.213001 # 1HT TIP4
196 49 3 -1.112800 7.637000 3.450000 35.134998 # 3MO TIP4
197 50 2 0.556400 21.591000 15.514000 10.167000 # 2OT TIP4
198 50 1 0.000000 20.891001 14.694000 10.235000 # 1HT TIP4
199 50 1 0.000000 21.780001 15.909000 11.153000 # 1HT TIP4
200 50 3 -1.112800 21.573000 15.512000 10.151000 # 3MO TIP4
201 51 2 0.556400 0.615000 30.476999 3.038000 # 2OT TIP4
202 51 1 0.000000 0.961000 29.542999 3.456000 # 1HT TIP4
203 51 1 0.000000 1.115000 30.657000 2.098000 # 1HT TIP4
204 51 3 -1.112800 0.619000 30.475000 3.060000 # 3MO TIP4
205 52 2 0.556400 13.605000 15.814000 3.288000 # 2OT TIP4
206 52 1 0.000000 14.174000 15.059000 2.766000 # 1HT TIP4
207 52 1 0.000000 13.279000 16.568001 2.587000 # 1HT TIP4
208 52 3 -1.112800 13.624000 15.806000 3.297000 # 3MO TIP4
209 53 2 0.556400 32.438000 27.885000 4.152000 # 2OT TIP4
210 53 1 0.000000 31.958000 27.099001 3.588000 # 1HT TIP4
211 53 1 0.000000 32.910999 27.462999 5.026000 # 1HT TIP4
212 53 3 -1.112800 32.417000 27.888000 4.143000 # 3MO TIP4
213 54 2 0.556400 19.107000 26.367001 21.233000 # 2OT TIP4
214 54 1 0.000000 19.188000 25.291000 21.278999 # 1HT TIP4
215 54 1 0.000000 18.827000 26.665001 20.235001 # 1HT TIP4
216 54 3 -1.112800 19.125000 26.357000 21.245001 # 3MO TIP4
217 55 2 0.556400 10.906000 9.819000 13.992000 # 2OT TIP4
218 55 1 0.000000 10.671000 8.770000 14.096000 # 1HT TIP4
219 55 1 0.000000 11.836000 9.927000 13.455000 # 1HT TIP4
220 55 3 -1.112800 10.898000 9.811000 14.012000 # 3MO TIP4
221 56 2 0.556400 27.733000 28.229000 6.071000 # 2OT TIP4
222 56 1 0.000000 28.601000 28.870001 6.021000 # 1HT TIP4
223 56 1 0.000000 27.183001 28.438000 6.976000 # 1HT TIP4
224 56 3 -1.112800 27.753000 28.219999 6.064000 # 3MO TIP4
225 57 2 0.556400 29.809000 19.212999 17.004999 # 2OT TIP4
226 57 1 0.000000 30.589001 19.243999 17.750999 # 1HT TIP4
227 57 1 0.000000 28.850000 19.111000 17.490999 # 1HT TIP4
228 57 3 -1.112800 29.827999 19.201000 17.000999 # 3MO TIP4
229 58 2 0.556400 22.438999 3.067000 10.105000 # 2OT TIP4
230 58 1 0.000000 23.503000 2.930000 10.235000 # 1HT TIP4
231 58 1 0.000000 21.969000 3.175000 11.070000 # 1HT TIP4
232 58 3 -1.112800 22.451000 3.051000 10.092000 # 3MO TIP4
233 59 2 0.556400 35.478001 1.192000 19.360001 # 2OT TIP4
234 59 1 0.000000 34.514000 1.674000 19.297001 # 1HT TIP4
235 59 1 0.000000 35.344002 0.149000 19.604000 # 1HT TIP4
236 59 3 -1.112800 35.474998 1.214000 19.370001 # 3MO TIP4
237 60 2 0.556400 26.160999 14.987000 1.295000 # 2OT TIP4
238 60 1 0.000000 26.283001 13.944000 1.044000 # 1HT TIP4
239 60 1 0.000000 25.840000 15.533000 0.420000 # 1HT TIP4
240 60 3 -1.112800 26.179001 14.976000 1.303000 # 3MO TIP4
241 61 2 0.556400 29.347000 7.908000 14.792000 # 2OT TIP4
242 61 1 0.000000 30.268999 7.659000 14.287000 # 1HT TIP4
243 61 1 0.000000 28.632999 8.283000 14.073000 # 1HT TIP4
244 61 3 -1.112800 29.368000 7.914000 14.801000 # 3MO TIP4
245 62 2 0.556400 28.809000 24.094000 29.054001 # 2OT TIP4
246 62 1 0.000000 29.129000 23.080000 28.860001 # 1HT TIP4
247 62 1 0.000000 28.351999 24.146000 30.031000 # 1HT TIP4
248 62 3 -1.112800 28.806000 24.084000 29.033001 # 3MO TIP4
249 63 2 0.556400 19.745001 30.566999 34.249001 # 2OT TIP4
250 63 1 0.000000 18.872999 30.000000 34.540001 # 1HT TIP4
251 63 1 0.000000 20.065001 31.184999 35.074001 # 1HT TIP4
252 63 3 -1.112800 19.726999 30.565001 34.234001 # 3MO TIP4
253 64 2 0.556400 32.200001 32.099998 19.546000 # 2OT TIP4
254 64 1 0.000000 32.966000 31.441000 19.927000 # 1HT TIP4
255 64 1 0.000000 32.366001 32.275002 18.493000 # 1HT TIP4
256 64 3 -1.112800 32.209999 32.104000 19.566000 # 3MO TIP4
257 65 2 0.556400 25.188999 18.406000 8.291000 # 2OT TIP4
258 65 1 0.000000 25.850000 18.627001 9.116000 # 1HT TIP4
259 65 1 0.000000 24.827999 17.392000 8.380000 # 1HT TIP4
260 65 3 -1.112800 25.208000 18.417999 8.287000 # 3MO TIP4
261 66 2 0.556400 4.432000 34.356998 2.329000 # 2OT TIP4
262 66 1 0.000000 5.252000 33.694000 2.096000 # 1HT TIP4
263 66 1 0.000000 4.817000 35.342999 2.545000 # 1HT TIP4
264 66 3 -1.112800 4.433000 34.334999 2.338000 # 3MO TIP4
265 67 2 0.556400 6.576000 1.351000 7.039000 # 2OT TIP4
266 67 1 0.000000 5.571000 1.715000 6.883000 # 1HT TIP4
267 67 1 0.000000 6.538000 0.327000 7.381000 # 1HT TIP4
268 67 3 -1.112800 6.570000 1.372000 7.046000 # 3MO TIP4
269 68 2 0.556400 29.650000 9.169000 7.469000 # 2OT TIP4
270 68 1 0.000000 29.749001 8.162000 7.090000 # 1HT TIP4
271 68 1 0.000000 29.983000 9.871000 6.719000 # 1HT TIP4
272 68 3 -1.112800 29.658001 9.152000 7.483000 # 3MO TIP4
273 69 2 0.556400 12.975000 11.830000 15.151000 # 2OT TIP4
274 69 1 0.000000 13.540000 12.653000 15.562000 # 1HT TIP4
275 69 1 0.000000 13.576000 11.309000 14.421000 # 1HT TIP4
276 69 3 -1.112800 12.965000 11.850000 15.155000 # 3MO TIP4
277 70 2 0.556400 26.813999 13.010000 4.307000 # 2OT TIP4
278 70 1 0.000000 27.511000 13.831000 4.234000 # 1HT TIP4
279 70 1 0.000000 27.156000 12.191000 3.693000 # 1HT TIP4
280 70 3 -1.112800 26.806000 13.032000 4.305000 # 3MO TIP4
281 71 2 0.556400 21.448000 31.287001 8.216000 # 2OT TIP4
282 71 1 0.000000 20.600000 30.992001 8.817000 # 1HT TIP4
283 71 1 0.000000 22.219000 31.691000 8.854000 # 1HT TIP4
284 71 3 -1.112800 21.426001 31.292000 8.208000 # 3MO TIP4
285 72 2 0.556400 10.634000 0.464000 5.965000 # 2OT TIP4
286 72 1 0.000000 10.135000 0.006000 6.806000 # 1HT TIP4
287 72 1 0.000000 11.597000 -0.002000 5.821000 # 1HT TIP4
288 72 3 -1.112800 10.623000 0.477000 5.980000 # 3MO TIP4
289 73 2 0.556400 9.324000 26.004000 32.889999 # 2OT TIP4
290 73 1 0.000000 8.837000 25.612000 32.009998 # 1HT TIP4
291 73 1 0.000000 8.988000 25.459999 33.759998 # 1HT TIP4
292 73 3 -1.112800 9.316000 26.018999 32.874001 # 3MO TIP4
293 74 2 0.556400 27.604000 25.320000 2.028000 # 2OT TIP4
294 74 1 0.000000 28.025999 25.792999 1.154000 # 1HT TIP4
295 74 1 0.000000 27.249001 24.334000 1.768000 # 1HT TIP4
296 74 3 -1.112800 27.599001 25.343000 2.024000 # 3MO TIP4
297 75 2 0.556400 21.382000 34.049999 1.552000 # 2OT TIP4
298 75 1 0.000000 22.084999 33.577999 0.883000 # 1HT TIP4
299 75 1 0.000000 20.787001 34.764999 1.003000 # 1HT TIP4
300 75 3 -1.112800 21.403999 34.047001 1.559000 # 3MO TIP4
301 76 2 0.556400 2.617000 30.712999 26.004000 # 2OT TIP4
302 76 1 0.000000 1.560000 30.562000 26.170000 # 1HT TIP4
303 76 1 0.000000 2.771000 31.131001 25.021000 # 1HT TIP4
304 76 3 -1.112800 2.609000 30.694000 26.014999 # 3MO TIP4
305 77 2 0.556400 26.606001 8.314000 10.805000 # 2OT TIP4
306 77 1 0.000000 27.296000 8.988000 10.319000 # 1HT TIP4
307 77 1 0.000000 25.794001 8.879000 11.238000 # 1HT TIP4
308 77 3 -1.112800 26.629000 8.311000 10.808000 # 3MO TIP4
309 78 2 0.556400 33.285000 12.794000 6.982000 # 2OT TIP4
310 78 1 0.000000 33.311001 11.841000 6.475000 # 1HT TIP4
311 78 1 0.000000 33.570000 13.576000 6.294000 # 1HT TIP4
312 78 3 -1.112800 33.293999 12.776000 6.993000 # 3MO TIP4
313 79 2 0.556400 30.813000 21.662001 28.660999 # 2OT TIP4
314 79 1 0.000000 30.841000 20.657000 28.266001 # 1HT TIP4
315 79 1 0.000000 30.853001 21.627001 29.739000 # 1HT TIP4
316 79 3 -1.112800 30.799000 21.656000 28.643000 # 3MO TIP4
317 80 2 0.556400 3.380000 30.285000 4.592000 # 2OT TIP4
318 80 1 0.000000 2.544000 30.695000 5.140000 # 1HT TIP4
319 80 1 0.000000 3.902000 29.572001 5.211000 # 1HT TIP4
320 80 3 -1.112800 3.375000 30.308001 4.591000 # 3MO TIP4
321 81 2 0.556400 27.257000 3.229000 18.783001 # 2OT TIP4
322 81 1 0.000000 26.742001 2.484000 19.371000 # 1HT TIP4
323 81 1 0.000000 27.660999 2.770000 17.893000 # 1HT TIP4
324 81 3 -1.112800 27.260000 3.229000 18.806000 # 3MO TIP4
325 82 2 0.556400 16.322001 23.823000 18.100000 # 2OT TIP4
326 82 1 0.000000 16.334000 24.566999 17.316999 # 1HT TIP4
327 82 1 0.000000 17.243999 23.874001 18.660000 # 1HT TIP4
328 82 3 -1.112800 16.313999 23.816999 18.077999 # 3MO TIP4
329 83 2 0.556400 14.693000 13.810000 34.700001 # 2OT TIP4
330 83 1 0.000000 14.721000 14.820000 35.080002 # 1HT TIP4
331 83 1 0.000000 14.991000 13.123000 35.478001 # 1HT TIP4
332 83 3 -1.112800 14.702000 13.827000 34.687000 # 3MO TIP4
333 84 2 0.556400 7.802000 27.781000 17.011000 # 2OT TIP4
334 84 1 0.000000 7.082000 26.981001 17.097000 # 1HT TIP4
335 84 1 0.000000 7.351000 28.707001 17.334999 # 1HT TIP4
336 84 3 -1.112800 7.800000 27.764999 16.993999 # 3MO TIP4
337 85 2 0.556400 30.177000 25.450001 19.280001 # 2OT TIP4
338 85 1 0.000000 29.108999 25.518000 19.135000 # 1HT TIP4
339 85 1 0.000000 30.576000 24.667000 18.653000 # 1HT TIP4
340 85 3 -1.112800 30.163000 25.452999 19.298000 # 3MO TIP4
341 86 2 0.556400 17.715000 29.861000 29.938000 # 2OT TIP4
342 86 1 0.000000 17.224001 30.613001 29.337000 # 1HT TIP4
343 86 1 0.000000 17.002001 29.424999 30.621000 # 1HT TIP4
344 86 3 -1.112800 17.725000 29.882000 29.933001 # 3MO TIP4
345 87 2 0.556400 24.440001 17.677999 4.166000 # 2OT TIP4
346 87 1 0.000000 24.671000 18.336000 4.991000 # 1HT TIP4
347 87 1 0.000000 23.441000 17.881001 3.812000 # 1HT TIP4
348 87 3 -1.112800 24.451000 17.670000 4.185000 # 3MO TIP4
349 88 2 0.556400 16.764000 7.217000 19.825001 # 2OT TIP4
350 88 1 0.000000 16.047001 7.325000 19.024000 # 1HT TIP4
351 88 1 0.000000 16.532000 7.917000 20.613001 # 1HT TIP4
352 88 3 -1.112800 16.771000 7.217000 19.802999 # 3MO TIP4
353 89 2 0.556400 0.408000 21.649000 19.417999 # 2OT TIP4
354 89 1 0.000000 0.050000 22.000999 20.375000 # 1HT TIP4
355 89 1 0.000000 0.901000 22.458000 18.900000 # 1HT TIP4
356 89 3 -1.112800 0.387000 21.643000 19.426001 # 3MO TIP4
357 90 2 0.556400 11.653000 0.517000 10.023000 # 2OT TIP4
358 90 1 0.000000 11.202000 1.494000 10.118000 # 1HT TIP4
359 90 1 0.000000 11.200000 -0.010000 9.196000 # 1HT TIP4
360 90 3 -1.112800 11.648000 0.525000 10.044000 # 3MO TIP4
361 91 2 0.556400 6.321000 16.517000 21.386000 # 2OT TIP4
362 91 1 0.000000 5.312000 16.365999 21.739000 # 1HT TIP4
363 91 1 0.000000 6.314000 16.624001 20.311001 # 1HT TIP4
364 91 3 -1.112800 6.317000 16.500999 21.402000 # 3MO TIP4
365 92 2 0.556400 5.397000 13.621000 20.372999 # 2OT TIP4
366 92 1 0.000000 5.096000 13.823000 21.389999 # 1HT TIP4
367 92 1 0.000000 5.828000 14.511000 19.941000 # 1HT TIP4
368 92 3 -1.112800 5.376000 13.613000 20.379999 # 3MO TIP4
369 93 2 0.556400 24.058001 18.017000 12.027000 # 2OT TIP4
370 93 1 0.000000 23.827000 19.070000 12.086000 # 1HT TIP4
371 93 1 0.000000 23.143000 17.451000 11.934000 # 1HT TIP4
372 93 3 -1.112800 24.070000 18.030001 12.043000 # 3MO TIP4
373 94 2 0.556400 4.456000 34.756001 27.257999 # 2OT TIP4
374 94 1 0.000000 4.813000 35.556000 26.625999 # 1HT TIP4
375 94 1 0.000000 3.969000 34.007999 26.650000 # 1HT TIP4
376 94 3 -1.112800 4.453000 34.778000 27.264000 # 3MO TIP4
377 95 2 0.556400 23.267000 32.410000 19.479000 # 2OT TIP4
378 95 1 0.000000 23.318001 33.481998 19.365000 # 1HT TIP4
379 95 1 0.000000 23.452999 32.147999 20.510000 # 1HT TIP4
380 95 3 -1.112800 23.278000 32.418999 19.459999 # 3MO TIP4
381 96 2 0.556400 1.236000 31.100000 28.447001 # 2OT TIP4
382 96 1 0.000000 1.140000 31.051001 29.521999 # 1HT TIP4
383 96 1 0.000000 0.310000 30.790001 27.988001 # 1HT TIP4
384 96 3 -1.112800 1.254000 31.091000 28.459999 # 3MO TIP4
385 97 2 0.556400 10.609000 8.667000 28.865999 # 2OT TIP4
386 97 1 0.000000 10.019000 7.991000 29.466999 # 1HT TIP4
387 97 1 0.000000 11.565000 8.830000 29.340000 # 1HT TIP4
388 97 3 -1.112800 10.586000 8.671000 28.868999 # 3MO TIP4
389 98 2 0.556400 20.799999 34.327999 3.678000 # 2OT TIP4
390 98 1 0.000000 21.844000 34.525002 3.873000 # 1HT TIP4
391 98 1 0.000000 20.341000 33.909000 4.561000 # 1HT TIP4
392 98 3 -1.112800 20.816000 34.323002 3.662000 # 3MO TIP4
393 99 2 0.556400 12.611000 13.687000 6.486000 # 2OT TIP4
394 99 1 0.000000 13.537000 14.242000 6.509000 # 1HT TIP4
395 99 1 0.000000 11.931000 14.151000 5.787000 # 1HT TIP4
396 99 3 -1.112800 12.621000 13.692000 6.506000 # 3MO TIP4
397 100 2 0.556400 0.920000 12.954000 2.172000 # 2OT TIP4
398 100 1 0.000000 0.001000 12.395000 2.066000 # 1HT TIP4
399 100 1 0.000000 1.126000 13.486000 1.256000 # 1HT TIP4
400 100 3 -1.112800 0.919000 12.932000 2.180000 # 3MO TIP4
401 101 2 0.556400 5.923000 8.877000 15.765000 # 2OT TIP4
402 101 1 0.000000 5.977000 9.912000 16.070999 # 1HT TIP4
403 101 1 0.000000 6.229000 8.243000 16.584000 # 1HT TIP4
404 101 3 -1.112800 5.932000 8.893000 15.751000 # 3MO TIP4
405 102 2 0.556400 26.868000 0.894000 27.216000 # 2OT TIP4
406 102 1 0.000000 27.118999 -0.000000 26.664000 # 1HT TIP4
407 102 1 0.000000 27.441999 1.725000 26.834000 # 1HT TIP4
408 102 3 -1.112800 26.871000 0.874000 27.226999 # 3MO TIP4
409 103 2 0.556400 22.827999 5.742000 19.014000 # 2OT TIP4
410 103 1 0.000000 23.598000 6.466000 18.788000 # 1HT TIP4
411 103 1 0.000000 22.518000 5.856000 20.042000 # 1HT TIP4
412 103 3 -1.112800 22.847000 5.736000 19.002001 # 3MO TIP4
413 104 2 0.556400 26.499001 26.955000 20.350000 # 2OT TIP4
414 104 1 0.000000 26.628000 25.919001 20.075001 # 1HT TIP4
415 104 1 0.000000 26.382999 27.552999 19.458000 # 1HT TIP4
416 104 3 -1.112800 26.514999 26.941999 20.361000 # 3MO TIP4
417 105 2 0.556400 30.426001 7.410000 10.152000 # 2OT TIP4
418 105 1 0.000000 31.087999 6.587000 9.925000 # 1HT TIP4
419 105 1 0.000000 29.941000 7.742000 9.246000 # 1HT TIP4
420 105 3 -1.112800 30.447001 7.409000 10.162000 # 3MO TIP4
421 106 2 0.556400 26.558001 24.906000 28.768000 # 2OT TIP4
422 106 1 0.000000 26.427999 24.223000 27.941000 # 1HT TIP4
423 106 1 0.000000 25.604000 25.339001 29.030001 # 1HT TIP4
424 106 3 -1.112800 26.573000 24.906000 28.750000 # 3MO TIP4
425 107 2 0.556400 22.900999 23.254000 22.591000 # 2OT TIP4
426 107 1 0.000000 23.101000 23.370001 23.646000 # 1HT TIP4
427 107 1 0.000000 22.573000 22.243999 22.396000 # 1HT TIP4
428 107 3 -1.112800 22.920000 23.266001 22.598000 # 3MO TIP4
429 108 2 0.556400 33.056999 31.162001 24.014000 # 2OT TIP4
430 108 1 0.000000 33.192001 30.172001 24.424999 # 1HT TIP4
431 108 1 0.000000 33.960999 31.469999 23.511000 # 1HT TIP4
432 108 3 -1.112800 33.049000 31.157000 24.035000 # 3MO TIP4
433 109 2 0.556400 12.357000 26.337999 0.279000 # 2OT TIP4
434 109 1 0.000000 11.737000 27.017000 0.846000 # 1HT TIP4
435 109 1 0.000000 12.786000 25.603001 0.943000 # 1HT TIP4
436 109 3 -1.112800 12.358000 26.361000 0.275000 # 3MO TIP4
437 110 2 0.556400 4.052000 14.555000 23.660000 # 2OT TIP4
438 110 1 0.000000 3.543000 15.246000 23.003000 # 1HT TIP4
439 110 1 0.000000 3.964000 13.554000 23.266001 # 1HT TIP4
440 110 3 -1.112800 4.038000 14.572000 23.669001 # 3MO TIP4
441 111 2 0.556400 15.520000 24.818001 15.053000 # 2OT TIP4
442 111 1 0.000000 14.570000 24.349001 15.266000 # 1HT TIP4
443 111 1 0.000000 15.555000 25.104000 14.013000 # 1HT TIP4
444 111 3 -1.112800 15.519000 24.799000 15.067000 # 3MO TIP4
445 112 2 0.556400 32.513000 33.089001 23.070000 # 2OT TIP4
446 112 1 0.000000 32.514999 33.502998 24.068001 # 1HT TIP4
447 112 1 0.000000 31.517000 32.757999 22.819000 # 1HT TIP4
448 112 3 -1.112800 32.530998 33.084000 23.084999 # 3MO TIP4
449 113 2 0.556400 7.265000 22.556000 3.755000 # 2OT TIP4
450 113 1 0.000000 8.125000 23.104000 4.112000 # 1HT TIP4
451 113 1 0.000000 7.461000 22.188000 2.759000 # 1HT TIP4
452 113 3 -1.112800 7.262000 22.576000 3.766000 # 3MO TIP4
453 114 2 0.556400 17.812000 30.018999 14.568000 # 2OT TIP4
454 114 1 0.000000 17.098000 30.768000 14.877000 # 1HT TIP4
455 114 1 0.000000 18.698999 30.094000 15.180000 # 1HT TIP4
456 114 3 -1.112800 17.801001 30.031000 14.552000 # 3MO TIP4
457 115 2 0.556400 34.575001 15.335000 26.348000 # 2OT TIP4
458 115 1 0.000000 35.331001 14.876000 26.969000 # 1HT TIP4
459 115 1 0.000000 34.914001 16.308001 26.028000 # 1HT TIP4
460 115 3 -1.112800 34.569000 15.323000 26.368000 # 3MO TIP4
461 116 2 0.556400 29.103001 8.661000 17.544001 # 2OT TIP4
462 116 1 0.000000 29.593000 7.827000 17.063999 # 1HT TIP4
463 116 1 0.000000 28.407000 8.294000 18.283001 # 1HT TIP4
464 116 3 -1.112800 29.106001 8.662000 17.521000 # 3MO TIP4
465 117 2 0.556400 0.912000 13.416000 11.769000 # 2OT TIP4
466 117 1 0.000000 1.483000 14.217000 12.215000 # 1HT TIP4
467 117 1 0.000000 0.638000 13.687000 10.760000 # 1HT TIP4
468 117 3 -1.112800 0.908000 13.422000 11.791000 # 3MO TIP4
469 118 2 0.556400 18.138000 22.292000 14.755000 # 2OT TIP4
470 118 1 0.000000 17.250000 22.882000 14.580000 # 1HT TIP4
471 118 1 0.000000 18.485001 21.879000 13.820000 # 1HT TIP4
472 118 3 -1.112800 18.120001 22.290001 14.769000 # 3MO TIP4
473 119 2 0.556400 33.749001 25.164000 32.928001 # 2OT TIP4
474 119 1 0.000000 34.759998 25.398001 32.626999 # 1HT TIP4
475 119 1 0.000000 33.417000 25.881001 33.662998 # 1HT TIP4
476 119 3 -1.112800 33.764999 25.146999 32.924999 # 3MO TIP4
477 120 2 0.556400 33.422001 11.995000 23.702999 # 2OT TIP4
478 120 1 0.000000 34.014999 11.449000 24.422001 # 1HT TIP4
479 120 1 0.000000 33.525002 11.538000 22.730000 # 1HT TIP4
480 120 3 -1.112800 33.435001 12.007000 23.719000 # 3MO TIP4
481 121 2 0.556400 34.013000 28.101000 13.694000 # 2OT TIP4
482 121 1 0.000000 33.412998 27.205999 13.622000 # 1HT TIP4
483 121 1 0.000000 34.499001 28.285999 12.748000 # 1HT TIP4
484 121 3 -1.112800 34.013000 28.086000 13.711000 # 3MO TIP4
485 122 2 0.556400 29.643000 1.701000 20.253000 # 2OT TIP4
486 122 1 0.000000 30.289000 0.924000 19.872000 # 1HT TIP4
487 122 1 0.000000 28.892000 1.939000 19.513000 # 1HT TIP4
488 122 3 -1.112800 29.666000 1.702000 20.256001 # 3MO TIP4
489 123 2 0.556400 29.028999 28.523001 19.127001 # 2OT TIP4
490 123 1 0.000000 28.356001 29.216999 19.608000 # 1HT TIP4
491 123 1 0.000000 28.475000 27.660999 18.788000 # 1HT TIP4
492 123 3 -1.112800 29.035999 28.534000 19.146999 # 3MO TIP4
493 124 2 0.556400 2.037000 24.666000 0.824000 # 2OT TIP4
494 124 1 0.000000 1.592000 24.773001 1.802000 # 1HT TIP4
495 124 1 0.000000 2.242000 25.643000 0.412000 # 1HT TIP4
496 124 3 -1.112800 2.019000 24.652000 0.830000 # 3MO TIP4
497 125 2 0.556400 9.769000 9.709000 10.045000 # 2OT TIP4
498 125 1 0.000000 9.955000 10.742000 9.787000 # 1HT TIP4
499 125 1 0.000000 9.391000 9.185000 9.181000 # 1HT TIP4
500 125 3 -1.112800 9.763000 9.726000 10.060000 # 3MO TIP4
501 126 2 0.556400 23.063999 30.576000 32.646000 # 2OT TIP4
502 126 1 0.000000 23.457001 30.480000 33.647999 # 1HT TIP4
503 126 1 0.000000 23.135000 29.625999 32.139000 # 1HT TIP4
504 126 3 -1.112800 23.077999 30.593000 32.654999 # 3MO TIP4