LAMMPS data file. CGCMM style. atom_style full generated by VMD/TopoTools v1.7 on Tue Jan 10 20:43:01 IST 2023
 4500 atoms
 3000 bonds
 1500 angles
 0 dihedrals
 0 impropers
 2 atom types
 1 bond types
 1 angle types
 0 dihedral types
 0 improper types
  -0.0230 35.5560  xlo xhi
  -0.0150 35.5950  ylo yhi
  -0.0840 35.5580  zlo zhi

# Pair Coeffs
#
# 1  1HT
# 2  2OT

# Bond Coeffs
#
# 1  1HT-2OT

# Angle Coeffs
#
# 1  1HT-2OT-1HT

 Masses

 1 1.007940 # 1HT
 2 15.999400 # 2OT

 Atoms # full

1 1 2 -0.820000 34.970001 19.709999 26.584999 # 2OT SPC
2 1 1 0.410000 34.022999 20.163000 26.332001 # 1HT SPC
3 1 1 0.410000 35.349998 19.169001 25.731001 # 1HT SPC
4 2 2 -0.820000 29.781000 7.672000 15.040000 # 2OT SPC
5 2 1 0.410000 30.000999 8.603000 14.538000 # 1HT SPC
6 2 1 0.410000 29.750999 7.836000 16.107000 # 1HT SPC
7 3 2 -0.820000 34.688000 16.596001 7.483000 # 2OT SPC
8 3 1 0.410000 34.641998 17.558001 7.972000 # 1HT SPC
9 3 1 0.410000 34.717999 15.814000 8.227000 # 1HT SPC
10 4 2 -0.820000 26.382999 11.834000 0.815000 # 2OT SPC
11 4 1 0.410000 27.077000 11.985000 0.000000 # 1HT SPC
12 4 1 0.410000 25.542000 11.253000 0.468000 # 1HT SPC
13 5 2 -0.820000 14.766000 21.448999 5.906000 # 2OT SPC
14 5 1 0.410000 15.495000 22.240999 5.994000 # 1HT SPC
15 5 1 0.410000 14.747000 20.874001 6.820000 # 1HT SPC
16 6 2 -0.820000 28.063999 21.790001 29.780001 # 2OT SPC
17 6 1 0.410000 28.999001 21.299000 30.004999 # 1HT SPC
18 6 1 0.410000 27.448999 21.818001 30.667000 # 1HT SPC
19 7 2 -0.820000 27.983999 19.667999 32.812000 # 2OT SPC
20 7 1 0.410000 28.416000 20.105000 31.924000 # 1HT SPC
21 7 1 0.410000 27.965000 18.593000 32.712002 # 1HT SPC
22 8 2 -0.820000 15.741000 1.877000 22.020000 # 2OT SPC
23 8 1 0.410000 15.198000 1.027000 22.407000 # 1HT SPC
24 8 1 0.410000 16.347000 2.305000 22.805000 # 1HT SPC
25 9 2 -0.820000 28.106001 7.095000 24.504000 # 2OT SPC
26 9 1 0.410000 28.222000 6.615000 23.544001 # 1HT SPC
27 9 1 0.410000 28.975000 7.701000 24.711000 # 1HT SPC
28 10 2 -0.820000 15.545000 24.096001 17.384001 # 2OT SPC
29 10 1 0.410000 15.373000 23.660999 18.357000 # 1HT SPC
30 10 1 0.410000 15.103000 25.080000 17.346001 # 1HT SPC
31 11 2 -0.820000 14.402000 19.330000 23.927000 # 2OT SPC
32 11 1 0.410000 14.914000 19.103001 24.850000 # 1HT SPC
33 11 1 0.410000 15.084000 19.214001 23.099001 # 1HT SPC
34 12 2 -0.820000 9.206000 17.955999 34.703999 # 2OT SPC
35 12 1 0.410000 8.683000 17.086000 34.334999 # 1HT SPC
36 12 1 0.410000 8.661000 18.377001 35.535999 # 1HT SPC
37 13 2 -0.820000 23.600000 3.415000 6.678000 # 2OT SPC
38 13 1 0.410000 23.011000 4.214000 7.103000 # 1HT SPC
39 13 1 0.410000 24.597000 3.774000 6.470000 # 1HT SPC
40 14 2 -0.820000 31.445000 19.856001 28.570000 # 2OT SPC
41 14 1 0.410000 31.395000 20.725000 27.931000 # 1HT SPC
42 14 1 0.410000 30.879999 19.049999 28.125000 # 1HT SPC
43 15 2 -0.820000 -0.001000 18.159000 7.444000 # 2OT SPC
44 15 1 0.410000 0.814000 18.333000 8.130000 # 1HT SPC
45 15 1 0.410000 0.394000 17.941000 6.463000 # 1HT SPC
46 16 2 -0.820000 19.344999 2.086000 14.081000 # 2OT SPC
47 16 1 0.410000 19.945000 1.190000 14.031000 # 1HT SPC
48 16 1 0.410000 19.405001 2.612000 13.140000 # 1HT SPC
49 17 2 -0.820000 2.169000 5.147000 26.584999 # 2OT SPC
50 17 1 0.410000 1.109000 5.350000 26.559000 # 1HT SPC
51 17 1 0.410000 2.582000 5.510000 27.514000 # 1HT SPC
52 18 2 -0.820000 2.595000 19.583000 7.808000 # 2OT SPC
53 18 1 0.410000 2.024000 19.698999 6.898000 # 1HT SPC
54 18 1 0.410000 3.068000 18.613001 7.815000 # 1HT SPC
55 19 2 -0.820000 24.999001 21.791000 4.121000 # 2OT SPC
56 19 1 0.410000 24.695000 22.493000 4.884000 # 1HT SPC
57 19 1 0.410000 25.802000 22.216999 3.539000 # 1HT SPC
58 20 2 -0.820000 8.587000 5.186000 10.371000 # 2OT SPC
59 20 1 0.410000 8.329000 6.235000 10.386000 # 1HT SPC
60 20 1 0.410000 7.953000 4.669000 9.666000 # 1HT SPC
61 21 2 -0.820000 28.898001 24.014999 9.996000 # 2OT SPC
62 21 1 0.410000 29.847000 23.521999 10.146000 # 1HT SPC
63 21 1 0.410000 28.150000 23.556000 10.625000 # 1HT SPC
64 22 2 -0.820000 33.141998 6.715000 18.604000 # 2OT SPC
65 22 1 0.410000 32.271000 7.113000 19.104000 # 1HT SPC
66 22 1 0.410000 33.735001 7.528000 18.212000 # 1HT SPC
67 23 2 -0.820000 26.605000 24.033001 6.154000 # 2OT SPC
68 23 1 0.410000 27.653999 23.907000 6.379000 # 1HT SPC
69 23 1 0.410000 26.422001 25.054001 5.852000 # 1HT SPC
70 24 2 -0.820000 9.630000 6.588000 2.768000 # 2OT SPC
71 24 1 0.410000 9.014000 7.335000 2.290000 # 1HT SPC
72 24 1 0.410000 9.281000 5.604000 2.493000 # 1HT SPC
73 25 2 -0.820000 27.173000 31.889999 22.089001 # 2OT SPC
74 25 1 0.410000 26.481001 32.673000 22.363001 # 1HT SPC
75 25 1 0.410000 27.850000 31.705999 22.909000 # 1HT SPC
76 26 2 -0.820000 8.397000 28.254000 17.582001 # 2OT SPC
77 26 1 0.410000 8.854000 27.368999 17.164000 # 1HT SPC
78 26 1 0.410000 8.526000 28.254999 18.653999 # 1HT SPC
79 27 2 -0.820000 23.517000 26.039000 19.327000 # 2OT SPC
80 27 1 0.410000 23.919001 25.601999 18.424000 # 1HT SPC
81 27 1 0.410000 23.223000 27.059000 19.132999 # 1HT SPC
82 28 2 -0.820000 30.544001 15.291000 3.474000 # 2OT SPC
83 28 1 0.410000 29.618000 15.473000 4.000000 # 1HT SPC
84 28 1 0.410000 31.063000 14.464000 3.935000 # 1HT SPC
85 29 2 -0.820000 19.895000 9.232000 4.234000 # 2OT SPC
86 29 1 0.410000 19.613001 8.246000 3.893000 # 1HT SPC
87 29 1 0.410000 20.805000 9.537000 3.739000 # 1HT SPC
88 30 2 -0.820000 7.887000 11.952000 14.965000 # 2OT SPC
89 30 1 0.410000 7.457000 10.986000 14.740000 # 1HT SPC
90 30 1 0.410000 7.277000 12.455000 15.700000 # 1HT SPC
91 31 2 -0.820000 33.841000 14.090000 7.180000 # 2OT SPC
92 31 1 0.410000 33.612999 13.912000 8.221000 # 1HT SPC
93 31 1 0.410000 32.966000 14.479000 6.681000 # 1HT SPC
94 32 2 -0.820000 7.640000 14.568000 32.646000 # 2OT SPC
95 32 1 0.410000 7.160000 15.417000 32.181999 # 1HT SPC
96 32 1 0.410000 7.200000 14.392000 33.616001 # 1HT SPC
97 33 2 -0.820000 22.039000 24.555000 24.438000 # 2OT SPC
98 33 1 0.410000 20.968000 24.417999 24.445000 # 1HT SPC
99 33 1 0.410000 22.516001 23.691999 24.877001 # 1HT SPC
100 34 2 -0.820000 23.287001 10.965000 11.686000 # 2OT SPC
101 34 1 0.410000 24.176001 10.665000 12.220000 # 1HT SPC
102 34 1 0.410000 22.422001 10.815000 12.314000 # 1HT SPC
103 35 2 -0.820000 19.608000 22.801001 17.936001 # 2OT SPC
104 35 1 0.410000 20.073999 23.496000 18.620001 # 1HT SPC
105 35 1 0.410000 20.028999 22.929001 16.950001 # 1HT SPC
106 36 2 -0.820000 16.365000 6.672000 11.285000 # 2OT SPC
107 36 1 0.410000 15.459000 6.094000 11.388000 # 1HT SPC
108 36 1 0.410000 16.643999 7.079000 12.246000 # 1HT SPC
109 37 2 -0.820000 1.503000 23.368999 1.238000 # 2OT SPC
110 37 1 0.410000 1.972000 24.000999 0.499000 # 1HT SPC
111 37 1 0.410000 0.721000 22.789000 0.770000 # 1HT SPC
112 38 2 -0.820000 23.645000 32.911999 25.299000 # 2OT SPC
113 38 1 0.410000 23.482000 33.943001 25.018999 # 1HT SPC
114 38 1 0.410000 23.386999 32.269001 24.471001 # 1HT SPC
115 39 2 -0.820000 34.741001 12.478000 24.851999 # 2OT SPC
116 39 1 0.410000 34.573002 12.918000 25.823999 # 1HT SPC
117 39 1 0.410000 35.244999 11.530000 24.966999 # 1HT SPC
118 40 2 -0.820000 18.833000 14.158000 27.955999 # 2OT SPC
119 40 1 0.410000 19.298000 13.233000 28.263000 # 1HT SPC
120 40 1 0.410000 18.221001 14.538000 28.761000 # 1HT SPC
121 41 2 -0.820000 3.217000 15.757000 13.888000 # 2OT SPC
122 41 1 0.410000 2.674000 16.688999 13.941000 # 1HT SPC
123 41 1 0.410000 3.886000 15.778000 13.040000 # 1HT SPC
124 42 2 -0.820000 31.188999 19.618999 25.902000 # 2OT SPC
125 42 1 0.410000 31.649000 18.673000 25.657000 # 1HT SPC
126 42 1 0.410000 31.257999 20.284000 25.055000 # 1HT SPC
127 43 2 -0.820000 3.881000 18.900000 17.577999 # 2OT SPC
128 43 1 0.410000 4.833000 18.424999 17.764999 # 1HT SPC
129 43 1 0.410000 3.199000 18.669001 18.381001 # 1HT SPC
130 44 2 -0.820000 3.846000 10.756000 11.507000 # 2OT SPC
131 44 1 0.410000 4.233000 10.321000 12.417000 # 1HT SPC
132 44 1 0.410000 4.624000 10.775000 10.758000 # 1HT SPC
133 45 2 -0.820000 27.801001 2.267000 19.864000 # 2OT SPC
134 45 1 0.410000 28.122999 1.949000 20.844999 # 1HT SPC
135 45 1 0.410000 26.804001 1.901000 19.674999 # 1HT SPC
136 46 2 -0.820000 33.862999 10.353000 15.398000 # 2OT SPC
137 46 1 0.410000 33.076000 10.450000 14.665000 # 1HT SPC
138 46 1 0.410000 33.784000 9.393000 15.886000 # 1HT SPC
139 47 2 -0.820000 6.685000 8.125000 0.611000 # 2OT SPC
140 47 1 0.410000 7.177000 7.389000 -0.007000 # 1HT SPC
141 47 1 0.410000 6.366000 8.955000 -0.002000 # 1HT SPC
142 48 2 -0.820000 21.612000 16.281000 18.742001 # 2OT SPC
143 48 1 0.410000 21.221001 16.753000 19.631001 # 1HT SPC
144 48 1 0.410000 22.659000 16.524000 18.636000 # 1HT SPC
145 49 2 -0.820000 15.269000 14.947000 34.361000 # 2OT SPC
146 49 1 0.410000 15.363000 13.964000 33.922001 # 1HT SPC
147 49 1 0.410000 15.519000 15.695000 33.624001 # 1HT SPC
148 50 2 -0.820000 35.270000 19.945999 4.678000 # 2OT SPC
149 50 1 0.410000 35.534000 19.465000 3.748000 # 1HT SPC
150 50 1 0.410000 35.549000 19.309000 5.504000 # 1HT SPC
151 51 2 -0.820000 28.149000 32.555000 3.037000 # 2OT SPC
152 51 1 0.410000 28.694000 33.216000 2.380000 # 1HT SPC
153 51 1 0.410000 28.351999 32.819000 4.064000 # 1HT SPC
154 52 2 -0.820000 24.202999 24.815001 15.449000 # 2OT SPC
155 52 1 0.410000 25.046000 24.193001 15.713000 # 1HT SPC
156 52 1 0.410000 24.438000 25.381001 14.559000 # 1HT SPC
157 53 2 -0.820000 15.135000 24.905001 20.180000 # 2OT SPC
158 53 1 0.410000 14.551000 25.774000 19.915001 # 1HT SPC
159 53 1 0.410000 15.836000 25.167000 20.959000 # 1HT SPC
160 54 2 -0.820000 23.224001 12.997000 13.293000 # 2OT SPC
161 54 1 0.410000 23.969999 13.378000 13.976000 # 1HT SPC
162 54 1 0.410000 22.497999 12.415000 13.840000 # 1HT SPC
163 55 2 -0.820000 30.181999 30.039000 8.737000 # 2OT SPC
164 55 1 0.410000 30.388000 29.905001 7.685000 # 1HT SPC
165 55 1 0.410000 29.226999 30.528999 8.857000 # 1HT SPC
166 56 2 -0.820000 25.632999 5.672000 22.125999 # 2OT SPC
167 56 1 0.410000 25.459000 6.672000 21.757000 # 1HT SPC
168 56 1 0.410000 25.732000 4.992000 21.292999 # 1HT SPC
169 57 2 -0.820000 31.239000 31.629999 6.024000 # 2OT SPC
170 57 1 0.410000 32.117001 32.141998 6.392000 # 1HT SPC
171 57 1 0.410000 31.490999 30.606001 5.792000 # 1HT SPC
172 58 2 -0.820000 28.768000 25.961000 0.849000 # 2OT SPC
173 58 1 0.410000 28.049999 25.157000 0.782000 # 1HT SPC
174 58 1 0.410000 29.420000 25.934000 -0.011000 # 1HT SPC
175 59 2 -0.820000 31.184999 4.723000 20.653000 # 2OT SPC
176 59 1 0.410000 31.532000 5.745000 20.688000 # 1HT SPC
177 59 1 0.410000 31.233999 4.292000 21.641001 # 1HT SPC
178 60 2 -0.820000 4.319000 6.146000 17.037001 # 2OT SPC
179 60 1 0.410000 5.050000 6.920000 16.850000 # 1HT SPC
180 60 1 0.410000 3.575000 6.158000 16.254000 # 1HT SPC
181 61 2 -0.820000 34.908001 9.065000 32.007999 # 2OT SPC
182 61 1 0.410000 35.428001 8.538000 32.794998 # 1HT SPC
183 61 1 0.410000 35.536999 9.116000 31.132000 # 1HT SPC
184 62 2 -0.820000 20.531000 22.445000 8.441000 # 2OT SPC
185 62 1 0.410000 20.796000 23.283001 9.069000 # 1HT SPC
186 62 1 0.410000 20.069000 22.805000 7.535000 # 1HT SPC
187 63 2 -0.820000 30.149000 -0.009000 22.283001 # 2OT SPC
188 63 1 0.410000 29.749001 0.621000 21.502001 # 1HT SPC
189 63 1 0.410000 30.806000 0.572000 22.913000 # 1HT SPC
190 64 2 -0.820000 10.706000 10.400000 19.204000 # 2OT SPC
191 64 1 0.410000 11.324000 10.152000 20.055000 # 1HT SPC
192 64 1 0.410000 9.670000 10.213000 19.444000 # 1HT SPC
193 65 2 -0.820000 23.738001 19.518999 24.086000 # 2OT SPC
194 65 1 0.410000 24.764999 19.823999 24.225000 # 1HT SPC
195 65 1 0.410000 23.572001 19.277000 23.047001 # 1HT SPC
196 66 2 -0.820000 10.154000 2.129000 18.849001 # 2OT SPC
197 66 1 0.410000 9.510000 2.497000 18.063999 # 1HT SPC
198 66 1 0.410000 9.577000 1.989000 19.750999 # 1HT SPC
199 67 2 -0.820000 31.709999 25.754000 14.604000 # 2OT SPC
200 67 1 0.410000 32.528000 25.951000 13.926000 # 1HT SPC
201 67 1 0.410000 30.778999 26.035999 14.137000 # 1HT SPC
202 68 2 -0.820000 0.794000 14.916000 27.349001 # 2OT SPC
203 68 1 0.410000 0.605000 13.865000 27.184999 # 1HT SPC
204 68 1 0.410000 0.569000 15.166000 28.375000 # 1HT SPC
205 69 2 -0.820000 7.674000 4.565000 13.928000 # 2OT SPC
206 69 1 0.410000 6.969000 3.916000 14.427000 # 1HT SPC
207 69 1 0.410000 7.479000 4.559000 12.866000 # 1HT SPC
208 70 2 -0.820000 24.816999 3.173000 17.923000 # 2OT SPC
209 70 1 0.410000 25.865000 3.425000 17.997000 # 1HT SPC
210 70 1 0.410000 24.388000 3.668000 17.065001 # 1HT SPC
211 71 2 -0.820000 28.104000 16.768999 21.673000 # 2OT SPC
212 71 1 0.410000 27.608000 15.883000 22.041000 # 1HT SPC
213 71 1 0.410000 28.329000 17.424999 22.500000 # 1HT SPC
214 72 2 -0.820000 17.350000 4.944000 10.346000 # 2OT SPC
215 72 1 0.410000 18.211000 4.386000 10.009000 # 1HT SPC
216 72 1 0.410000 16.941000 4.476000 11.229000 # 1HT SPC
217 73 2 -0.820000 12.971000 10.766000 25.740000 # 2OT SPC
218 73 1 0.410000 12.772000 9.975000 26.448000 # 1HT SPC
219 73 1 0.410000 13.293000 11.650000 26.268999 # 1HT SPC
220 74 2 -0.820000 25.261000 1.554000 34.042999 # 2OT SPC
221 74 1 0.410000 24.959000 2.587000 33.943001 # 1HT SPC
222 74 1 0.410000 26.113001 1.491000 34.703999 # 1HT SPC
223 75 2 -0.820000 30.929001 24.350000 21.572001 # 2OT SPC
224 75 1 0.410000 30.882999 23.493000 22.226000 # 1HT SPC
225 75 1 0.410000 30.884001 24.021999 20.544001 # 1HT SPC
226 76 2 -0.820000 30.448999 2.673000 18.462000 # 2OT SPC
227 76 1 0.410000 30.337999 2.608000 19.535000 # 1HT SPC
228 76 1 0.410000 30.983000 3.576000 18.209000 # 1HT SPC
229 77 2 -0.820000 15.733000 30.488001 25.801001 # 2OT SPC
230 77 1 0.410000 15.768000 29.440001 26.059000 # 1HT SPC
231 77 1 0.410000 16.403000 31.040001 26.443001 # 1HT SPC
232 78 2 -0.820000 28.208000 7.801000 5.096000 # 2OT SPC
233 78 1 0.410000 27.273001 7.955000 4.577000 # 1HT SPC
234 78 1 0.410000 28.031000 7.223000 5.991000 # 1HT SPC
235 79 2 -0.820000 7.933000 32.473999 24.622999 # 2OT SPC
236 79 1 0.410000 8.955000 32.173000 24.441999 # 1HT SPC
237 79 1 0.410000 7.490000 32.817001 23.700001 # 1HT SPC
238 80 2 -0.820000 10.794000 10.854000 28.556000 # 2OT SPC
239 80 1 0.410000 11.808000 10.548000 28.341000 # 1HT SPC
240 80 1 0.410000 10.598000 11.805000 28.084999 # 1HT SPC
241 81 2 -0.820000 28.003000 25.377001 7.977000 # 2OT SPC
242 81 1 0.410000 28.275000 25.987000 7.129000 # 1HT SPC
243 81 1 0.410000 26.934000 25.226999 7.985000 # 1HT SPC
244 82 2 -0.820000 19.098000 23.024000 11.324000 # 2OT SPC
245 82 1 0.410000 18.152000 23.320000 11.754000 # 1HT SPC
246 82 1 0.410000 19.792000 22.781000 12.115000 # 1HT SPC
247 83 2 -0.820000 15.288000 24.572001 26.695000 # 2OT SPC
248 83 1 0.410000 15.265000 24.950001 27.705999 # 1HT SPC
249 83 1 0.410000 15.302000 25.399000 26.000999 # 1HT SPC
250 84 2 -0.820000 32.910000 17.260000 13.848000 # 2OT SPC
251 84 1 0.410000 33.140999 17.929001 13.032000 # 1HT SPC
252 84 1 0.410000 33.573002 16.408001 13.814000 # 1HT SPC
253 85 2 -0.820000 8.260000 17.419001 15.244000 # 2OT SPC
254 85 1 0.410000 7.623000 16.572001 15.033000 # 1HT SPC
255 85 1 0.410000 8.843000 17.658001 14.367000 # 1HT SPC
256 86 2 -0.820000 23.061001 7.545000 28.236000 # 2OT SPC
257 86 1 0.410000 22.412001 8.405000 28.160999 # 1HT SPC
258 86 1 0.410000 23.528999 7.531000 29.209000 # 1HT SPC
259 87 2 -0.820000 34.910000 31.523001 14.351000 # 2OT SPC
260 87 1 0.410000 34.243999 32.327000 14.626000 # 1HT SPC
261 87 1 0.410000 35.543999 31.277000 15.189000 # 1HT SPC
262 88 2 -0.820000 0.662000 34.854000 1.927000 # 2OT SPC
263 88 1 0.410000 0.145000 34.131001 2.540000 # 1HT SPC
264 88 1 0.410000 1.222000 35.528000 2.559000 # 1HT SPC
265 89 2 -0.820000 18.934999 33.165001 33.272999 # 2OT SPC
266 89 1 0.410000 19.938999 33.216999 33.667999 # 1HT SPC
267 89 1 0.410000 18.260000 32.834999 34.048000 # 1HT SPC
268 90 2 -0.820000 13.093000 25.445999 25.674999 # 2OT SPC
269 90 1 0.410000 12.987000 24.497000 25.171000 # 1HT SPC
270 90 1 0.410000 13.310000 26.216999 24.951000 # 1HT SPC
271 91 2 -0.820000 27.097000 6.084000 32.457001 # 2OT SPC
272 91 1 0.410000 28.011999 5.594000 32.157001 # 1HT SPC
273 91 1 0.410000 26.709999 6.662000 31.631001 # 1HT SPC
274 92 2 -0.820000 32.025002 22.747000 11.384000 # 2OT SPC
275 92 1 0.410000 33.069000 22.829000 11.120000 # 1HT SPC
276 92 1 0.410000 31.834999 23.315001 12.283000 # 1HT SPC
277 93 2 -0.820000 7.758000 12.006000 1.708000 # 2OT SPC
278 93 1 0.410000 8.474000 12.766000 1.430000 # 1HT SPC
279 93 1 0.410000 8.158000 11.413000 2.516000 # 1HT SPC
280 94 2 -0.820000 0.707000 22.864000 14.451000 # 2OT SPC
281 94 1 0.410000 1.006000 21.884001 14.794000 # 1HT SPC
282 94 1 0.410000 0.034000 22.761999 13.613000 # 1HT SPC
283 95 2 -0.820000 11.064000 12.283000 25.122999 # 2OT SPC
284 95 1 0.410000 11.999000 12.768000 24.885000 # 1HT SPC
285 95 1 0.410000 10.243000 12.895000 24.778000 # 1HT SPC
286 96 2 -0.820000 6.715000 7.671000 21.693001 # 2OT SPC
287 96 1 0.410000 6.345000 8.638000 21.385000 # 1HT SPC
288 96 1 0.410000 5.892000 7.063000 22.037001 # 1HT SPC
289 97 2 -0.820000 2.265000 33.695999 15.944000 # 2OT SPC
290 97 1 0.410000 3.088000 33.047001 15.685000 # 1HT SPC
291 97 1 0.410000 1.543000 33.146000 16.528000 # 1HT SPC
292 98 2 -0.820000 20.667000 8.152000 11.653000 # 2OT SPC
293 98 1 0.410000 21.021999 7.171000 11.932000 # 1HT SPC
294 98 1 0.410000 20.149000 8.599000 12.488000 # 1HT SPC
295 99 2 -0.820000 13.760000 18.268000 20.073999 # 2OT SPC
296 99 1 0.410000 14.286000 19.152000 20.405001 # 1HT SPC
297 99 1 0.410000 14.374000 17.726000 19.371000 # 1HT SPC
298 100 2 -0.820000 4.598000 34.855999 10.410000 # 2OT SPC
299 100 1 0.410000 4.492000 33.838001 10.755000 # 1HT SPC
300 100 1 0.410000 4.003000 34.999001 9.521000 # 1HT SPC
301 101 2 -0.820000 17.646000 11.116000 0.660000 # 2OT SPC
302 101 1 0.410000 17.540001 10.279000 -0.015000 # 1HT SPC
303 101 1 0.410000 16.669001 11.497000 0.916000 # 1HT SPC
304 102 2 -0.820000 28.014000 5.093000 26.972000 # 2OT SPC
305 102 1 0.410000 27.171000 4.517000 26.620001 # 1HT SPC
306 102 1 0.410000 28.069000 6.022000 26.424000 # 1HT SPC
307 103 2 -0.820000 16.659000 27.181999 20.528000 # 2OT SPC
308 103 1 0.410000 16.990999 28.201000 20.665001 # 1HT SPC
309 103 1 0.410000 16.349001 27.040001 19.503000 # 1HT SPC
310 104 2 -0.820000 9.424000 -0.003000 33.895000 # 2OT SPC
311 104 1 0.410000 10.287000 0.549000 33.550999 # 1HT SPC
312 104 1 0.410000 8.531000 0.421000 33.462002 # 1HT SPC
313 105 2 -0.820000 30.672001 35.527000 19.850000 # 2OT SPC
314 105 1 0.410000 30.430000 34.519001 20.153999 # 1HT SPC
315 105 1 0.410000 30.900000 35.540001 18.795000 # 1HT SPC
316 106 2 -0.820000 2.596000 30.671000 25.648001 # 2OT SPC
317 106 1 0.410000 3.180000 31.209999 24.917000 # 1HT SPC
318 106 1 0.410000 1.571000 31.006001 25.607000 # 1HT SPC
319 107 2 -0.820000 4.553000 5.524000 13.861000 # 2OT SPC
320 107 1 0.410000 5.473000 5.338000 13.327000 # 1HT SPC
321 107 1 0.410000 4.169000 4.594000 14.252000 # 1HT SPC
322 108 2 -0.820000 26.202000 0.792000 28.872999 # 2OT SPC
323 108 1 0.410000 27.229000 1.019000 28.625999 # 1HT SPC
324 108 1 0.410000 25.844000 -0.000000 28.233000 # 1HT SPC
325 109 2 -0.820000 25.179001 17.249001 23.716999 # 2OT SPC
326 109 1 0.410000 24.340000 17.211000 23.038000 # 1HT SPC
327 109 1 0.410000 25.719000 16.316000 23.676001 # 1HT SPC
328 110 2 -0.820000 12.324000 12.241000 13.879000 # 2OT SPC
329 110 1 0.410000 12.625000 13.180000 13.438000 # 1HT SPC
330 110 1 0.410000 12.554000 11.435000 13.199000 # 1HT SPC
331 111 2 -0.820000 4.828000 30.212000 6.270000 # 2OT SPC
332 111 1 0.410000 4.657000 29.667999 7.187000 # 1HT SPC
333 111 1 0.410000 5.865000 30.507999 6.215000 # 1HT SPC
334 112 2 -0.820000 35.535999 3.645000 8.245000 # 2OT SPC
335 112 1 0.410000 34.681000 4.075000 8.746000 # 1HT SPC
336 112 1 0.410000 35.341999 3.591000 7.184000 # 1HT SPC
337 113 2 -0.820000 2.754000 9.537000 21.146999 # 2OT SPC
338 113 1 0.410000 3.357000 8.654000 20.997999 # 1HT SPC
339 113 1 0.410000 1.760000 9.248000 21.452999 # 1HT SPC
340 114 2 -0.820000 18.878000 16.726999 13.850000 # 2OT SPC
341 114 1 0.410000 18.903000 16.612000 14.924000 # 1HT SPC
342 114 1 0.410000 18.451000 15.842000 13.403000 # 1HT SPC
343 115 2 -0.820000 6.111000 30.691999 15.785000 # 2OT SPC
344 115 1 0.410000 6.317000 30.709999 14.725000 # 1HT SPC
345 115 1 0.410000 6.130000 29.672001 16.138000 # 1HT SPC
346 116 2 -0.820000 22.002001 23.212000 13.704000 # 2OT SPC
347 116 1 0.410000 22.459000 23.993000 14.295000 # 1HT SPC
348 116 1 0.410000 21.688999 22.407000 14.352000 # 1HT SPC
349 117 2 -0.820000 12.926000 7.938000 18.186001 # 2OT SPC
350 117 1 0.410000 12.613000 7.622000 17.202000 # 1HT SPC
351 117 1 0.410000 12.782000 9.003000 18.285000 # 1HT SPC
352 118 2 -0.820000 28.086000 15.303000 24.864000 # 2OT SPC
353 118 1 0.410000 27.773001 14.493000 24.222000 # 1HT SPC
354 118 1 0.410000 27.219000 15.839000 25.219000 # 1HT SPC
355 119 2 -0.820000 25.407000 33.748001 0.272000 # 2OT SPC
356 119 1 0.410000 25.782000 34.699001 -0.077000 # 1HT SPC
357 119 1 0.410000 24.371000 33.641998 -0.013000 # 1HT SPC
358 120 2 -0.820000 17.673000 9.895000 12.798000 # 2OT SPC
359 120 1 0.410000 17.777000 10.963000 12.673000 # 1HT SPC
360 120 1 0.410000 17.174999 9.478000 11.936000 # 1HT SPC
361 121 2 -0.820000 10.061000 30.330000 6.960000 # 2OT SPC
362 121 1 0.410000 9.146000 30.542000 7.494000 # 1HT SPC
363 121 1 0.410000 10.883000 30.285000 7.659000 # 1HT SPC
364 122 2 -0.820000 20.495001 6.611000 28.023001 # 2OT SPC
365 122 1 0.410000 19.628000 7.037000 27.542000 # 1HT SPC
366 122 1 0.410000 21.313999 6.571000 27.320999 # 1HT SPC
367 123 2 -0.820000 14.748000 3.551000 3.738000 # 2OT SPC
368 123 1 0.410000 14.080000 4.201000 4.285000 # 1HT SPC
369 123 1 0.410000 14.455000 2.523000 3.890000 # 1HT SPC
370 124 2 -0.820000 11.503000 0.066000 11.137000 # 2OT SPC
371 124 1 0.410000 10.999000 -0.000000 12.090000 # 1HT SPC
372 124 1 0.410000 11.752000 1.096000 10.932000 # 1HT SPC
373 125 2 -0.820000 30.083000 10.536000 17.017000 # 2OT SPC
374 125 1 0.410000 30.190001 11.495000 17.500999 # 1HT SPC
375 125 1 0.410000 30.351000 9.751000 17.708000 # 1HT SPC
376 126 2 -0.820000 5.509000 21.114000 14.605000 # 2OT SPC
377 126 1 0.410000 6.126000 21.747999 13.986000 # 1HT SPC
378 126 1 0.410000 4.468000 21.299000 14.385000 # 1HT SPC
379 127 2 -0.820000 23.750000 14.498000 22.131001 # 2OT SPC
380 127 1 0.410000 23.853001 14.184000 21.103001 # 1HT SPC
381 127 1 0.410000 23.113001 15.369000 22.180000 # 1HT SPC
382 128 2 -0.820000 19.809000 28.524000 10.116000 # 2OT SPC
383 128 1 0.410000 19.580999 27.995001 9.202000 # 1HT SPC
384 128 1 0.410000 19.679001 29.584999 9.959000 # 1HT SPC
385 129 2 -0.820000 17.231001 23.247000 29.011999 # 2OT SPC
386 129 1 0.410000 16.205999 23.414000 29.309000 # 1HT SPC
387 129 1 0.410000 17.882000 23.403999 29.858000 # 1HT SPC
388 130 2 -0.820000 15.322000 28.472000 0.899000 # 2OT SPC
389 130 1 0.410000 15.825000 27.537001 0.697000 # 1HT SPC
390 130 1 0.410000 14.855000 28.830999 -0.005000 # 1HT SPC
391 131 2 -0.820000 32.840000 20.969000 9.947000 # 2OT SPC
392 131 1 0.410000 31.974001 21.351999 9.427000 # 1HT SPC
393 131 1 0.410000 33.125999 20.018999 9.521000 # 1HT SPC
394 132 2 -0.820000 2.655000 17.502001 24.288000 # 2OT SPC
395 132 1 0.410000 2.182000 17.658001 25.247000 # 1HT SPC
396 132 1 0.410000 2.810000 16.445000 24.132000 # 1HT SPC
397 133 2 -0.820000 34.971001 14.755000 14.855000 # 2OT SPC
398 133 1 0.410000 35.094002 14.285000 15.820000 # 1HT SPC
399 133 1 0.410000 35.535000 14.208000 14.115000 # 1HT SPC
400 134 2 -0.820000 26.462000 29.250000 28.357000 # 2OT SPC
401 134 1 0.410000 25.468000 28.862000 28.195000 # 1HT SPC
402 134 1 0.410000 26.413000 30.101000 29.020000 # 1HT SPC
403 135 2 -0.820000 9.459000 32.407001 5.473000 # 2OT SPC
404 135 1 0.410000 8.747000 31.875999 4.859000 # 1HT SPC
405 135 1 0.410000 9.067000 32.509998 6.473000 # 1HT SPC
406 136 2 -0.820000 28.287001 34.264999 18.947001 # 2OT SPC
407 136 1 0.410000 28.610001 35.279999 19.122999 # 1HT SPC
408 136 1 0.410000 27.750000 33.902000 19.809999 # 1HT SPC
409 137 2 -0.820000 25.466999 29.832001 16.072001 # 2OT SPC
410 137 1 0.410000 25.855000 30.684000 15.535000 # 1HT SPC
411 137 1 0.410000 24.563000 30.114000 16.591000 # 1HT SPC
412 138 2 -0.820000 0.422000 11.899000 26.214001 # 2OT SPC
413 138 1 0.410000 -0.001000 11.521000 27.134001 # 1HT SPC
414 138 1 0.410000 1.313000 11.341000 25.971001 # 1HT SPC
415 139 2 -0.820000 6.343000 28.600000 18.865999 # 2OT SPC
416 139 1 0.410000 5.964000 28.160000 17.955000 # 1HT SPC
417 139 1 0.410000 5.565000 28.601000 19.615000 # 1HT SPC
418 140 2 -0.820000 12.580000 11.933000 19.753000 # 2OT SPC
419 140 1 0.410000 12.250000 12.866000 20.187000 # 1HT SPC
420 140 1 0.410000 13.110000 11.358000 20.496000 # 1HT SPC
421 141 2 -0.820000 6.936000 13.488000 18.424000 # 2OT SPC
422 141 1 0.410000 7.296000 14.503000 18.504999 # 1HT SPC
423 141 1 0.410000 7.216000 12.935000 19.308001 # 1HT SPC
424 142 2 -0.820000 9.893000 23.822001 28.670000 # 2OT SPC
425 142 1 0.410000 9.931000 24.864000 28.388000 # 1HT SPC
426 142 1 0.410000 9.188000 23.302999 28.038000 # 1HT SPC
427 143 2 -0.820000 10.032000 14.306000 18.933001 # 2OT SPC
428 143 1 0.410000 9.218000 13.835000 19.462999 # 1HT SPC
429 143 1 0.410000 10.787000 13.569000 18.702000 # 1HT SPC
430 144 2 -0.820000 15.501000 20.587000 17.972000 # 2OT SPC
431 144 1 0.410000 15.506000 19.976000 17.082001 # 1HT SPC
432 144 1 0.410000 14.821000 21.414000 17.837000 # 1HT SPC
433 145 2 -0.820000 9.889000 9.482000 25.761000 # 2OT SPC
434 145 1 0.410000 9.940000 8.519000 25.274000 # 1HT SPC
435 145 1 0.410000 10.642000 10.136000 25.344999 # 1HT SPC
436 146 2 -0.820000 22.370001 1.801000 14.408000 # 2OT SPC
437 146 1 0.410000 23.188999 1.250000 13.970000 # 1HT SPC
438 146 1 0.410000 22.208000 2.711000 13.849000 # 1HT SPC
439 147 2 -0.820000 19.194000 17.853001 30.166000 # 2OT SPC
440 147 1 0.410000 18.223000 17.518999 30.502001 # 1HT SPC
441 147 1 0.410000 19.686001 18.389000 30.962999 # 1HT SPC
442 148 2 -0.820000 3.706000 25.584999 3.034000 # 2OT SPC
443 148 1 0.410000 3.720000 25.055000 3.975000 # 1HT SPC
444 148 1 0.410000 2.695000 25.889000 2.807000 # 1HT SPC
445 149 2 -0.820000 26.774000 13.821000 1.832000 # 2OT SPC
446 149 1 0.410000 27.243999 13.087000 2.470000 # 1HT SPC
447 149 1 0.410000 26.905001 14.804000 2.257000 # 1HT SPC
448 150 2 -0.820000 23.642000 1.779000 -0.001000 # 2OT SPC
449 150 1 0.410000 24.270000 2.657000 0.004000 # 1HT SPC
450 150 1 0.410000 22.605000 2.078000 0.023000 # 1HT SPC
451 151 2 -0.820000 34.971001 31.757999 17.257999 # 2OT SPC
452 151 1 0.410000 33.990002 31.539000 17.653000 # 1HT SPC
453 151 1 0.410000 35.405998 32.578999 17.808001 # 1HT SPC
454 152 2 -0.820000 33.890999 21.792000 3.729000 # 2OT SPC
455 152 1 0.410000 34.132999 21.003000 3.032000 # 1HT SPC
456 152 1 0.410000 33.806999 22.728001 3.198000 # 1HT SPC
457 153 2 -0.820000 17.349001 9.952000 4.624000 # 2OT SPC
458 153 1 0.410000 17.997999 10.443000 5.333000 # 1HT SPC
459 153 1 0.410000 17.628000 8.913000 4.539000 # 1HT SPC
460 154 2 -0.820000 21.299999 15.018000 27.357000 # 2OT SPC
461 154 1 0.410000 21.306999 13.985000 27.673000 # 1HT SPC
462 154 1 0.410000 20.551001 15.155000 26.591000 # 1HT SPC
463 155 2 -0.820000 34.984001 11.881000 8.336000 # 2OT SPC
464 155 1 0.410000 34.020000 11.837000 8.823000 # 1HT SPC
465 155 1 0.410000 35.551998 10.996000 8.582000 # 1HT SPC
466 156 2 -0.820000 14.890000 5.475000 16.531000 # 2OT SPC
467 156 1 0.410000 15.597000 5.833000 17.264000 # 1HT SPC
468 156 1 0.410000 14.033000 5.052000 17.034000 # 1HT SPC
469 157 2 -0.820000 10.097000 31.514000 15.786000 # 2OT SPC
470 157 1 0.410000 10.038000 30.570999 15.263000 # 1HT SPC
471 157 1 0.410000 11.122000 31.854000 15.801000 # 1HT SPC
472 158 2 -0.820000 24.990000 31.408001 2.291000 # 2OT SPC
473 158 1 0.410000 26.046000 31.542000 2.477000 # 1HT SPC
474 158 1 0.410000 24.669001 32.096001 1.523000 # 1HT SPC
475 159 2 -0.820000 29.444000 14.550000 10.843000 # 2OT SPC
476 159 1 0.410000 28.917000 15.462000 10.607000 # 1HT SPC
477 159 1 0.410000 29.143000 13.772000 10.158000 # 1HT SPC
478 160 2 -0.820000 33.758999 10.927000 31.308001 # 2OT SPC
479 160 1 0.410000 32.882000 10.349000 31.056000 # 1HT SPC
480 160 1 0.410000 34.451000 10.913000 30.479000 # 1HT SPC
481 161 2 -0.820000 4.143000 8.147000 12.100000 # 2OT SPC
482 161 1 0.410000 4.590000 7.244000 12.489000 # 1HT SPC
483 161 1 0.410000 3.075000 8.012000 12.015000 # 1HT SPC
484 162 2 -0.820000 12.974000 8.836000 0.211000 # 2OT SPC
485 162 1 0.410000 13.289000 8.065000 0.900000 # 1HT SPC
486 162 1 0.410000 12.647000 9.702000 0.765000 # 1HT SPC
487 163 2 -0.820000 30.528000 17.445000 22.438999 # 2OT SPC
488 163 1 0.410000 31.590000 17.305000 22.582001 # 1HT SPC
489 163 1 0.410000 30.274000 18.478001 22.624001 # 1HT SPC
490 164 2 -0.820000 1.967000 15.586000 6.890000 # 2OT SPC
491 164 1 0.410000 1.106000 15.866000 6.301000 # 1HT SPC
492 164 1 0.410000 2.396000 16.468000 7.342000 # 1HT SPC
493 165 2 -0.820000 19.754000 30.632999 20.524000 # 2OT SPC
494 165 1 0.410000 20.458000 30.801001 19.723000 # 1HT SPC
495 165 1 0.410000 19.664000 31.528999 21.118999 # 1HT SPC
496 166 2 -0.820000 15.945000 16.174999 -0.084000 # 2OT SPC
497 166 1 0.410000 16.943001 16.121000 0.325000 # 1HT SPC
498 166 1 0.410000 15.513000 17.136999 0.145000 # 1HT SPC
499 167 2 -0.820000 33.389999 18.207001 23.468000 # 2OT SPC
500 167 1 0.410000 33.629002 18.681000 24.408001 # 1HT SPC
501 167 1 0.410000 33.692001 17.171000 23.497999 # 1HT SPC
502 168 2 -0.820000 9.787000 0.583000 3.760000 # 2OT SPC
503 168 1 0.410000 10.847000 0.740000 3.900000 # 1HT SPC
504 168 1 0.410000 9.241000 1.105000 4.531000 # 1HT SPC
505 169 2 -0.820000 13.953000 6.017000 6.311000 # 2OT SPC
506 169 1 0.410000 14.652000 5.950000 5.490000 # 1HT SPC
507 169 1 0.410000 14.297000 6.758000 7.017000 # 1HT SPC
508 170 2 -0.820000 17.062000 19.150999 12.614000 # 2OT SPC
509 170 1 0.410000 17.062000 19.157000 11.534000 # 1HT SPC
510 170 1 0.410000 17.620001 18.298000 12.970000 # 1HT SPC
511 171 2 -0.820000 19.742001 34.785999 24.483000 # 2OT SPC