LAMMPS data file. CGCMM style. atom_style full generated by VMD/TopoTools v1.7 on Wed Dec 28 14:15:37 IST 2022
 11763 atoms
 7842 bonds
 3921 angles
 0 dihedrals
 0 impropers
 2 atom types
 1 bond types
 1 angle types
 0 dihedral types
 0 improper types
 -0.013000 49.987000  xlo xhi
 -0.019999 49.980001  ylo yhi
 -0.018500 49.981500  zlo zhi

# Pair Coeffs
#
# 1  1HT
# 2  2OT

# Bond Coeffs
#
# 1  

# Angle Coeffs
#
# 1  unknown

 Masses

 1 1.007940 # 1HT
 2 15.999400 # 2OT

 Atoms # full

1 1 2 -0.847600 3.668000 10.082000 15.904000 # 2OT TIP3
2 1 1 0.423800 3.224000 10.451000 15.101000 # 1HT TIP3
3 1 1 0.423800 3.092000 10.379000 16.627001 # 1HT TIP3
4 2 2 -0.847600 6.033000 4.876000 20.891001 # 2OT TIP3
5 2 1 0.423800 6.078000 5.224000 21.798000 # 1HT TIP3
6 2 1 0.423800 6.592000 4.088000 20.961000 # 1HT TIP3
7 3 2 -0.847600 4.569000 3.960000 29.886999 # 2OT TIP3
8 3 1 0.423800 3.959000 3.160000 29.980000 # 1HT TIP3
9 3 1 0.423800 3.995000 4.655000 29.422001 # 1HT TIP3
10 4 2 -0.847600 0.975000 14.007000 38.567001 # 2OT TIP3
11 4 1 0.423800 1.137000 13.263000 37.966000 # 1HT TIP3
12 4 1 0.423800 0.619000 13.539000 39.360001 # 1HT TIP3
13 5 2 -0.847600 5.186000 16.695999 12.072000 # 2OT TIP3
14 5 1 0.423800 6.083000 16.979000 11.816000 # 1HT TIP3
15 5 1 0.423800 5.337000 15.832000 12.490000 # 1HT TIP3
16 6 2 -0.847600 14.437000 5.794000 30.556000 # 2OT TIP3
17 6 1 0.423800 13.524000 5.319000 30.532000 # 1HT TIP3
18 6 1 0.423800 14.984000 5.113000 30.973000 # 1HT TIP3
19 7 2 -0.847600 8.324000 13.811000 21.332001 # 2OT TIP3
20 7 1 0.423800 8.633000 13.348000 22.112000 # 1HT TIP3
21 7 1 0.423800 8.506000 13.116000 20.645000 # 1HT TIP3
22 8 2 -0.847600 11.462000 26.025999 31.372999 # 2OT TIP3
23 8 1 0.423800 11.386000 26.695000 32.076000 # 1HT TIP3
24 8 1 0.423800 10.619000 26.080000 30.936001 # 1HT TIP3
25 9 2 -0.847600 3.786000 16.318001 1.310000 # 2OT TIP3
26 9 1 0.423800 3.781000 15.388000 1.196000 # 1HT TIP3
27 9 1 0.423800 4.528000 16.580000 0.781000 # 1HT TIP3
28 10 2 -0.847600 6.205000 6.991000 18.441999 # 2OT TIP3
29 10 1 0.423800 6.782000 7.347000 19.152000 # 1HT TIP3
30 10 1 0.423800 5.309000 7.062000 18.799999 # 1HT TIP3
31 11 2 -0.847600 16.125999 14.701000 4.577000 # 2OT TIP3
32 11 1 0.423800 16.070000 14.272000 3.726000 # 1HT TIP3
33 11 1 0.423800 16.805000 15.454000 4.445000 # 1HT TIP3
34 12 2 -0.847600 2.750000 8.844000 9.629000 # 2OT TIP3
35 12 1 0.423800 2.110000 8.290000 9.998000 # 1HT TIP3
36 12 1 0.423800 2.164000 9.245000 8.962000 # 1HT TIP3
37 13 2 -0.847600 3.935000 16.195000 22.108999 # 2OT TIP3
38 13 1 0.423800 4.870000 16.034000 21.985001 # 1HT TIP3
39 13 1 0.423800 3.655000 15.367000 22.580999 # 1HT TIP3
40 14 2 -0.847600 2.991000 11.162000 27.860001 # 2OT TIP3
41 14 1 0.423800 3.594000 10.968000 27.129000 # 1HT TIP3
42 14 1 0.423800 2.414000 11.775000 27.430000 # 1HT TIP3
43 15 2 -0.847600 4.240000 7.037000 27.080999 # 2OT TIP3
44 15 1 0.423800 4.656000 7.831000 26.658001 # 1HT TIP3
45 15 1 0.423800 3.786000 7.428000 27.812000 # 1HT TIP3
46 16 2 -0.847600 7.172000 6.999000 38.581001 # 2OT TIP3
47 16 1 0.423800 7.040000 7.550000 39.327000 # 1HT TIP3
48 16 1 0.423800 6.244000 6.756000 38.263000 # 1HT TIP3
49 17 2 -0.847600 10.674000 8.909000 4.986000 # 2OT TIP3
50 17 1 0.423800 10.998000 8.871000 5.932000 # 1HT TIP3
51 17 1 0.423800 9.748000 9.270000 5.075000 # 1HT TIP3
52 18 2 -0.847600 0.002000 5.667000 14.591000 # 2OT TIP3
53 18 1 0.423800 0.483000 5.990000 13.830000 # 1HT TIP3
54 18 1 0.423800 0.608000 5.781000 15.347000 # 1HT TIP3
55 19 2 -0.847600 9.882000 9.156000 14.916000 # 2OT TIP3
56 19 1 0.423800 9.574000 9.753000 15.597000 # 1HT TIP3
57 19 1 0.423800 10.021000 8.264000 15.289000 # 1HT TIP3
58 20 2 -0.847600 7.964000 6.107000 29.452999 # 2OT TIP3
59 20 1 0.423800 8.242000 5.206000 29.599001 # 1HT TIP3
60 20 1 0.423800 8.422000 6.545000 30.237000 # 1HT TIP3
61 21 2 -0.847600 24.177000 14.271000 38.125999 # 2OT TIP3
62 21 1 0.423800 23.534000 13.942000 37.459000 # 1HT TIP3
63 21 1 0.423800 25.062000 14.082000 37.681999 # 1HT TIP3
64 22 2 -0.847600 6.316000 5.288000 27.495001 # 2OT TIP3
65 22 1 0.423800 6.640000 5.631000 28.363001 # 1HT TIP3
66 22 1 0.423800 5.563000 5.852000 27.280001 # 1HT TIP3
67 23 2 -0.847600 12.889000 29.660000 9.087000 # 2OT TIP3
68 23 1 0.423800 12.578000 29.796000 9.975000 # 1HT TIP3
69 23 1 0.423800 13.764000 29.337000 9.212000 # 1HT TIP3
70 24 2 -0.847600 1.661000 6.681000 1.943000 # 2OT TIP3
71 24 1 0.423800 1.943000 5.739000 1.981000 # 1HT TIP3
72 24 1 0.423800 0.778000 6.599000 1.483000 # 1HT TIP3
73 25 2 -0.847600 4.821000 20.603001 11.239000 # 2OT TIP3
74 25 1 0.423800 5.466000 20.782000 11.963000 # 1HT TIP3
75 25 1 0.423800 5.384000 20.914000 10.456000 # 1HT TIP3
76 26 2 -0.847600 15.022000 20.855000 12.831000 # 2OT TIP3
77 26 1 0.423800 14.222000 20.809000 13.292000 # 1HT TIP3
78 26 1 0.423800 14.673000 21.056999 11.918000 # 1HT TIP3
79 27 2 -0.847600 1.339000 3.782000 22.813999 # 2OT TIP3
80 27 1 0.423800 0.839000 3.425000 22.087000 # 1HT TIP3
81 27 1 0.423800 1.775000 3.077000 23.138000 # 1HT TIP3
82 28 2 -0.847600 0.485000 15.137000 22.476000 # 2OT TIP3
83 28 1 0.423800 0.644000 15.425000 23.349001 # 1HT TIP3
84 28 1 0.423800 0.312000 15.961000 21.975000 # 1HT TIP3
85 29 2 -0.847600 13.143000 13.795000 33.479000 # 2OT TIP3
86 29 1 0.423800 12.931000 13.553000 34.355999 # 1HT TIP3
87 29 1 0.423800 13.523000 14.662000 33.519001 # 1HT TIP3
88 30 2 -0.847600 12.421000 20.594999 31.343000 # 2OT TIP3
89 30 1 0.423800 12.330000 20.621000 32.303001 # 1HT TIP3
90 30 1 0.423800 12.281000 21.525999 31.063000 # 1HT TIP3
91 31 2 -0.847600 9.955000 17.632999 41.207001 # 2OT TIP3
92 31 1 0.423800 9.041000 17.861000 41.367001 # 1HT TIP3
93 31 1 0.423800 10.205000 16.962999 41.948002 # 1HT TIP3
94 32 2 -0.847600 5.608000 23.917999 12.959000 # 2OT TIP3
95 32 1 0.423800 4.840000 23.622000 12.545000 # 1HT TIP3
96 32 1 0.423800 6.037000 24.336000 12.208000 # 1HT TIP3
97 33 2 -0.847600 10.426000 7.604000 2.404000 # 2OT TIP3
98 33 1 0.423800 10.761000 8.401000 1.994000 # 1HT TIP3
99 33 1 0.423800 10.248000 7.889000 3.308000 # 1HT TIP3
100 34 2 -0.847600 8.569000 25.684000 12.211000 # 2OT TIP3
101 34 1 0.423800 9.123000 25.542000 13.015000 # 1HT TIP3
102 34 1 0.423800 8.805000 26.594999 11.927000 # 1HT TIP3
103 35 2 -0.847600 4.269000 22.752001 16.264999 # 2OT TIP3
104 35 1 0.423800 4.149000 23.680000 15.888000 # 1HT TIP3
105 35 1 0.423800 5.061000 22.796000 16.775999 # 1HT TIP3
106 36 2 -0.847600 3.599000 13.689000 23.583000 # 2OT TIP3
107 36 1 0.423800 3.430000 12.876000 24.062000 # 1HT TIP3
108 36 1 0.423800 4.561000 13.769000 23.660999 # 1HT TIP3
109 37 2 -0.847600 19.952000 1.961000 26.164000 # 2OT TIP3
110 37 1 0.423800 20.414000 1.079000 26.079000 # 1HT TIP3
111 37 1 0.423800 20.667000 2.653000 26.013000 # 1HT TIP3
112 38 2 -0.847600 23.517000 11.039000 42.784000 # 2OT TIP3
113 38 1 0.423800 22.687000 10.572000 42.894001 # 1HT TIP3
114 38 1 0.423800 24.010000 10.506000 43.361000 # 1HT TIP3
115 39 2 -0.847600 22.572001 6.242000 3.478000 # 2OT TIP3
116 39 1 0.423800 21.705000 5.845000 3.830000 # 1HT TIP3
117 39 1 0.423800 22.951000 5.659000 2.858000 # 1HT TIP3
118 40 2 -0.847600 7.782000 28.346001 20.641001 # 2OT TIP3
119 40 1 0.423800 8.655000 28.233999 21.114000 # 1HT TIP3
120 40 1 0.423800 7.669000 29.295000 20.444000 # 1HT TIP3
121 41 2 -0.847600 10.926000 5.365000 1.018000 # 2OT TIP3
122 41 1 0.423800 11.138000 4.769000 1.754000 # 1HT TIP3
123 41 1 0.423800 10.657000 6.212000 1.493000 # 1HT TIP3
124 42 2 -0.847600 38.680000 24.645000 25.756001 # 2OT TIP3
125 42 1 0.423800 38.620998 25.384001 25.135000 # 1HT TIP3
126 42 1 0.423800 39.060001 24.974001 26.580000 # 1HT TIP3
127 43 2 -0.847600 8.647000 4.314000 19.278000 # 2OT TIP3
128 43 1 0.423800 7.964000 3.611000 19.326000 # 1HT TIP3
129 43 1 0.423800 8.043000 5.064000 19.153000 # 1HT TIP3
130 44 2 -0.847600 8.381000 17.319000 23.275000 # 2OT TIP3
131 44 1 0.423800 7.516000 17.340000 23.695000 # 1HT TIP3
132 44 1 0.423800 8.431000 18.263000 23.009001 # 1HT TIP3
133 45 2 -0.847600 4.342000 11.388000 25.271000 # 2OT TIP3
134 45 1 0.423800 4.842000 10.697000 25.677999 # 1HT TIP3
135 45 1 0.423800 4.903000 12.148000 25.577999 # 1HT TIP3
136 46 2 -0.847600 1.670000 15.675000 29.166000 # 2OT TIP3
137 46 1 0.423800 2.120000 15.950000 29.974001 # 1HT TIP3
138 46 1 0.423800 0.763000 15.517000 29.468000 # 1HT TIP3
139 47 2 -0.847600 16.469999 28.089001 2.181000 # 2OT TIP3
140 47 1 0.423800 16.854000 27.230000 2.499000 # 1HT TIP3
141 47 1 0.423800 15.533000 27.856001 2.088000 # 1HT TIP3
142 48 2 -0.847600 8.376000 32.914001 8.736000 # 2OT TIP3
143 48 1 0.423800 9.100000 32.283001 8.734000 # 1HT TIP3
144 48 1 0.423800 8.807000 33.794998 8.568000 # 1HT TIP3
145 49 2 -0.847600 0.802000 25.084000 5.523000 # 2OT TIP3
146 49 1 0.423800 0.579000 26.065001 5.505000 # 1HT TIP3
147 49 1 0.423800 1.795000 25.163000 5.445000 # 1HT TIP3
148 50 2 -0.847600 4.299000 17.774000 7.169000 # 2OT TIP3
149 50 1 0.423800 3.303000 17.802999 7.322000 # 1HT TIP3
150 50 1 0.423800 4.533000 18.754999 6.924000 # 1HT TIP3
151 51 2 -0.847600 8.892000 12.977000 5.321000 # 2OT TIP3
152 51 1 0.423800 8.119000 12.478000 5.443000 # 1HT TIP3
153 51 1 0.423800 9.342000 12.557000 4.536000 # 1HT TIP3
154 52 2 -0.847600 2.708000 20.969000 24.504000 # 2OT TIP3
155 52 1 0.423800 2.589000 20.945000 23.556000 # 1HT TIP3
156 52 1 0.423800 3.123000 21.834999 24.549000 # 1HT TIP3
157 53 2 -0.847600 2.428000 12.731000 30.487000 # 2OT TIP3
158 53 1 0.423800 2.719000 12.073000 29.830000 # 1HT TIP3
159 53 1 0.423800 2.582000 13.542000 30.007999 # 1HT TIP3
160 54 2 -0.847600 11.281000 31.586000 24.226000 # 2OT TIP3
161 54 1 0.423800 11.147000 30.638000 24.048000 # 1HT TIP3
162 54 1 0.423800 12.131000 31.561001 24.702000 # 1HT TIP3
163 55 2 -0.847600 45.214001 24.774000 48.060001 # 2OT TIP3
164 55 1 0.423800 45.317001 25.648001 48.511002 # 1HT TIP3
165 55 1 0.423800 46.153999 24.445999 48.186001 # 1HT TIP3
166 56 2 -0.847600 13.773000 17.596001 47.113998 # 2OT TIP3
167 56 1 0.423800 12.829000 17.724001 47.223999 # 1HT TIP3
168 56 1 0.423800 14.043000 17.148001 47.974998 # 1HT TIP3
169 57 2 -0.847600 10.692000 35.851002 43.144001 # 2OT TIP3
170 57 1 0.423800 10.789000 35.601002 42.237000 # 1HT TIP3
171 57 1 0.423800 10.703000 35.033001 43.643002 # 1HT TIP3
172 58 2 -0.847600 2.174000 18.468000 2.212000 # 2OT TIP3
173 58 1 0.423800 2.632000 17.628000 2.203000 # 1HT TIP3
174 58 1 0.423800 2.931000 19.120001 2.281000 # 1HT TIP3
175 59 2 -0.847600 1.812000 40.627998 4.494000 # 2OT TIP3
176 59 1 0.423800 2.229000 41.541000 4.394000 # 1HT TIP3
177 59 1 0.423800 1.704000 40.516998 5.436000 # 1HT TIP3
178 60 2 -0.847600 5.048000 9.046000 36.577999 # 2OT TIP3
179 60 1 0.423800 5.064000 9.889000 37.058998 # 1HT TIP3
180 60 1 0.423800 4.622000 9.224000 35.743000 # 1HT TIP3
181 61 2 -0.847600 4.818000 36.858002 17.787001 # 2OT TIP3
182 61 1 0.423800 4.146000 36.220001 17.466999 # 1HT TIP3
183 61 1 0.423800 4.984000 36.599998 18.684999 # 1HT TIP3
184 62 2 -0.847600 9.586000 35.305000 36.263000 # 2OT TIP3
185 62 1 0.423800 9.953000 35.826000 37.008999 # 1HT TIP3
186 62 1 0.423800 10.263000 35.511002 35.530998 # 1HT TIP3
187 63 2 -0.847600 12.390000 27.306999 37.360001 # 2OT TIP3
188 63 1 0.423800 11.845000 28.113001 37.292999 # 1HT TIP3
189 63 1 0.423800 12.045000 26.920000 38.174999 # 1HT TIP3
190 64 2 -0.847600 9.334000 43.306000 6.003000 # 2OT TIP3
191 64 1 0.423800 9.855000 42.694000 5.421000 # 1HT TIP3
192 64 1 0.423800 8.670000 43.592999 5.365000 # 1HT TIP3
193 65 2 -0.847600 1.331000 36.141998 2.701000 # 2OT TIP3
194 65 1 0.423800 0.365000 36.131001 2.963000 # 1HT TIP3
195 65 1 0.423800 1.672000 35.284000 3.033000 # 1HT TIP3
196 66 2 -0.847600 2.916000 31.913000 8.978000 # 2OT TIP3
197 66 1 0.423800 3.773000 32.387001 9.016000 # 1HT TIP3
198 66 1 0.423800 2.225000 32.578999 9.028000 # 1HT TIP3
199 67 2 -0.847600 2.860000 40.978001 11.955000 # 2OT TIP3
200 67 1 0.423800 2.369000 41.313000 12.752000 # 1HT TIP3
201 67 1 0.423800 2.401000 41.374001 11.201000 # 1HT TIP3
202 68 2 -0.847600 18.870001 21.459999 28.971001 # 2OT TIP3
203 68 1 0.423800 17.903000 21.288000 28.721001 # 1HT TIP3
204 68 1 0.423800 19.073999 20.691000 29.591000 # 1HT TIP3
205 69 2 -0.847600 6.079000 33.355999 25.597000 # 2OT TIP3
206 69 1 0.423800 6.483000 33.937000 26.264999 # 1HT TIP3
207 69 1 0.423800 5.182000 33.791000 25.496000 # 1HT TIP3
208 70 2 -0.847600 3.522000 29.694000 27.275000 # 2OT TIP3
209 70 1 0.423800 2.979000 29.239000 28.035000 # 1HT TIP3
210 70 1 0.423800 2.890000 30.250000 26.886999 # 1HT TIP3
211 71 2 -0.847600 15.344000 34.737999 32.730999 # 2OT TIP3
212 71 1 0.423800 15.526000 35.544998 33.160000 # 1HT TIP3
213 71 1 0.423800 14.913000 35.025002 31.884001 # 1HT TIP3
214 72 2 -0.847600 4.438000 39.306000 46.188000 # 2OT TIP3
215 72 1 0.423800 3.832000 38.755001 46.714001 # 1HT TIP3
216 72 1 0.423800 4.788000 38.662998 45.554001 # 1HT TIP3
217 73 2 -0.847600 10.425000 41.995998 48.914001 # 2OT TIP3
218 73 1 0.423800 10.428000 40.998001 48.755001 # 1HT TIP3
219 73 1 0.423800 11.195000 42.174999 49.436001 # 1HT TIP3
220 74 2 -0.847600 9.064000 30.445999 17.695999 # 2OT TIP3
221 74 1 0.423800 9.896000 30.191999 18.080999 # 1HT TIP3
222 74 1 0.423800 8.498000 30.631001 18.490999 # 1HT TIP3
223 75 2 -0.847600 18.420000 32.007000 22.329000 # 2OT TIP3
224 75 1 0.423800 17.913000 31.809999 23.089001 # 1HT TIP3
225 75 1 0.423800 19.344999 32.189999 22.662001 # 1HT TIP3
226 76 2 -0.847600 14.370000 36.169998 36.009998 # 2OT TIP3
227 76 1 0.423800 14.790000 36.752998 35.304001 # 1HT TIP3
228 76 1 0.423800 15.069000 35.483002 36.043999 # 1HT TIP3
229 77 2 -0.847600 2.129000 21.440001 45.619999 # 2OT TIP3
230 77 1 0.423800 2.529000 22.283001 45.910999 # 1HT TIP3
231 77 1 0.423800 1.390000 21.409000 46.234001 # 1HT TIP3
232 78 2 -0.847600 11.672000 33.151001 41.474998 # 2OT TIP3
233 78 1 0.423800 11.157000 32.334999 41.570999 # 1HT TIP3
234 78 1 0.423800 12.109000 33.294998 42.321999 # 1HT TIP3
235 79 2 -0.847600 48.019001 38.730999 15.359000 # 2OT TIP3
236 79 1 0.423800 47.167000 38.671001 14.857000 # 1HT TIP3
237 79 1 0.423800 48.056000 37.759998 15.752000 # 1HT TIP3
238 80 2 -0.847600 0.565000 29.252001 1.583000 # 2OT TIP3
239 80 1 0.423800 1.463000 29.562000 1.736000 # 1HT TIP3
240 80 1 0.423800 0.586000 28.334999 1.788000 # 1HT TIP3
241 81 2 -0.847600 13.739000 33.515999 37.537998 # 2OT TIP3
242 81 1 0.423800 13.342000 33.363998 36.662998 # 1HT TIP3
243 81 1 0.423800 13.129000 32.963001 38.063000 # 1HT TIP3
244 82 2 -0.847600 13.612000 17.680000 18.622000 # 2OT TIP3
245 82 1 0.423800 13.744000 17.414000 19.507999 # 1HT TIP3
246 82 1 0.423800 14.526000 17.830999 18.347000 # 1HT TIP3
247 83 2 -0.847600 9.858000 38.394001 5.556000 # 2OT TIP3
248 83 1 0.423800 9.086000 38.132000 5.992000 # 1HT TIP3
249 83 1 0.423800 10.285000 39.002998 6.083000 # 1HT TIP3
250 84 2 -0.847600 10.082000 34.674000 11.934000 # 2OT TIP3
251 84 1 0.423800 10.208000 35.123001 12.795000 # 1HT TIP3
252 84 1 0.423800 9.448000 35.287998 11.545000 # 1HT TIP3
253 85 2 -0.847600 7.234000 45.627998 2.195000 # 2OT TIP3
254 85 1 0.423800 7.817000 45.255001 1.528000 # 1HT TIP3
255 85 1 0.423800 7.811000 46.301998 2.557000 # 1HT TIP3
256 86 2 -0.847600 5.885000 35.212002 7.563000 # 2OT TIP3
257 86 1 0.423800 5.509000 35.848999 6.891000 # 1HT TIP3
258 86 1 0.423800 6.802000 35.078999 7.312000 # 1HT TIP3
259 87 2 -0.847600 10.320000 43.797001 9.905000 # 2OT TIP3
260 87 1 0.423800 10.286000 43.722000 10.899000 # 1HT TIP3
261 87 1 0.423800 9.720000 44.595001 9.715000 # 1HT TIP3
262 88 2 -0.847600 9.485000 44.844002 28.528999 # 2OT TIP3
263 88 1 0.423800 8.962000 44.563000 27.725000 # 1HT TIP3
264 88 1 0.423800 9.114000 45.668999 28.662001 # 1HT TIP3
265 89 2 -0.847600 1.287000 24.132000 23.737000 # 2OT TIP3
266 89 1 0.423800 1.235000 23.924000 24.731001 # 1HT TIP3
267 89 1 0.423800 2.088000 24.709000 23.639000 # 1HT TIP3
268 90 2 -0.847600 16.469999 42.714001 20.518000 # 2OT TIP3
269 90 1 0.423800 16.419001 43.264000 21.339001 # 1HT TIP3
270 90 1 0.423800 16.958000 43.324001 19.927999 # 1HT TIP3
271 91 2 -0.847600 3.603000 45.411999 42.438999 # 2OT TIP3
272 91 1 0.423800 4.359000 45.900002 42.040001 # 1HT TIP3
273 91 1 0.423800 3.160000 46.158001 42.918999 # 1HT TIP3
274 92 2 -0.847600 6.582000 37.779999 27.400000 # 2OT TIP3
275 92 1 0.423800 6.840000 36.903999 27.215000 # 1HT TIP3
276 92 1 0.423800 7.183000 38.042000 28.139999 # 1HT TIP3
277 93 2 -0.847600 48.397999 26.834999 21.848000 # 2OT TIP3
278 93 1 0.423800 48.075001 26.323999 22.586000 # 1HT TIP3
279 93 1 0.423800 49.265999 27.160000 22.205999 # 1HT TIP3
280 94 2 -0.847600 7.656000 41.012001 37.374001 # 2OT TIP3
281 94 1 0.423800 8.380000 40.345001 37.431999 # 1HT TIP3
282 94 1 0.423800 8.109000 41.792000 37.153000 # 1HT TIP3
283 95 2 -0.847600 5.221000 46.049000 26.362000 # 2OT TIP3
284 95 1 0.423800 4.953000 45.618999 27.202999 # 1HT TIP3
285 95 1 0.423800 5.932000 45.492001 26.003000 # 1HT TIP3
286 96 2 -0.847600 8.084000 32.875999 15.824000 # 2OT TIP3
287 96 1 0.423800 7.143000 32.955002 15.781000 # 1HT TIP3
288 96 1 0.423800 8.277000 32.234001 16.497000 # 1HT TIP3
289 97 2 -0.847600 9.906000 44.868000 19.263000 # 2OT TIP3
290 97 1 0.423800 9.689000 44.526001 18.384001 # 1HT TIP3
291 97 1 0.423800 10.879000 44.743999 19.291000 # 1HT TIP3
292 98 2 -0.847600 2.886000 47.918999 35.320000 # 2OT TIP3
293 98 1 0.423800 3.142000 48.588001 36.002998 # 1HT TIP3
294 98 1 0.423800 1.992000 47.636002 35.497002 # 1HT TIP3
295 99 2 -0.847600 23.346001 45.486000 5.291000 # 2OT TIP3
296 99 1 0.423800 22.655001 45.382999 4.654000 # 1HT TIP3
297 99 1 0.423800 23.740999 44.564999 5.414000 # 1HT TIP3
298 100 2 -0.847600 12.282000 44.683998 13.629000 # 2OT TIP3
299 100 1 0.423800 11.647000 44.737000 14.346000 # 1HT TIP3
300 100 1 0.423800 13.168000 44.471001 14.010000 # 1HT TIP3
301 101 2 -0.847600 2.730000 48.596001 31.812000 # 2OT TIP3
302 101 1 0.423800 3.200000 48.125000 32.487000 # 1HT TIP3
303 101 1 0.423800 2.891000 48.057999 31.007999 # 1HT TIP3
304 102 2 -0.847600 4.893000 37.771999 43.848000 # 2OT TIP3
305 102 1 0.423800 4.902000 36.801998 43.950001 # 1HT TIP3
306 102 1 0.423800 4.929000 37.949001 42.891998 # 1HT TIP3
307 103 2 -0.847600 0.758000 42.341999 47.249001 # 2OT TIP3
308 103 1 0.423800 1.070000 41.625000 47.844002 # 1HT TIP3
309 103 1 0.423800 1.483000 42.271999 46.605999 # 1HT TIP3
310 104 2 -0.847600 7.771000 47.063999 45.185001 # 2OT TIP3
311 104 1 0.423800 7.218000 46.306999 44.987999 # 1HT TIP3
312 104 1 0.423800 8.512000 46.620998 45.673000 # 1HT TIP3
313 105 2 -0.847600 3.643000 45.467999 6.233000 # 2OT TIP3
314 105 1 0.423800 3.726000 46.139999 6.886000 # 1HT TIP3
315 105 1 0.423800 4.449000 44.957001 6.305000 # 1HT TIP3
316 106 2 -0.847600 1.606000 47.334000 5.340000 # 2OT TIP3
317 106 1 0.423800 2.072000 46.480000 5.177000 # 1HT TIP3
318 106 1 0.423800 2.317000 47.972000 5.313000 # 1HT TIP3
319 107 2 -0.847600 42.471001 44.720001 8.716000 # 2OT TIP3
320 107 1 0.423800 42.895000 45.351002 9.371000 # 1HT TIP3
321 107 1 0.423800 41.618999 45.104000 8.575000 # 1HT TIP3
322 108 2 -0.847600 6.365000 2.674000 28.059000 # 2OT TIP3
323 108 1 0.423800 5.799000 3.437000 27.849001 # 1HT TIP3
324 108 1 0.423800 7.175000 3.055000 28.403000 # 1HT TIP3
325 109 2 -0.847600 13.546000 33.837002 43.438000 # 2OT TIP3
326 109 1 0.423800 13.138000 34.233002 44.227001 # 1HT TIP3
327 109 1 0.423800 14.056000 33.141998 43.844002 # 1HT TIP3
328 110 2 -0.847600 4.773000 44.261002 28.330999 # 2OT TIP3
329 110 1 0.423800 4.346000 43.393002 28.511999 # 1HT TIP3
330 110 1 0.423800 5.655000 44.180000 28.733000 # 1HT TIP3
331 111 2 -0.847600 6.131000 44.247002 39.382999 # 2OT TIP3
332 111 1 0.423800 5.491000 43.862999 40.034000 # 1HT TIP3
333 111 1 0.423800 5.574000 44.783001 38.771999 # 1HT TIP3
334 112 2 -0.847600 1.346000 46.349998 45.133999 # 2OT TIP3
335 112 1 0.423800 2.128000 45.932999 45.595001 # 1HT TIP3
336 112 1 0.423800 0.612000 46.266998 45.785000 # 1HT TIP3
337 113 2 -0.847600 11.664000 49.521999 4.325000 # 2OT TIP3
338 113 1 0.423800 11.676000 48.613998 4.570000 # 1HT TIP3
339 113 1 0.423800 12.403000 49.863998 4.757000 # 1HT TIP3
340 114 2 -0.847600 3.818000 48.146999 24.959999 # 2OT TIP3
341 114 1 0.423800 3.967000 47.606998 25.723000 # 1HT TIP3
342 114 1 0.423800 4.113000 48.986000 25.257999 # 1HT TIP3
343 115 2 -0.847600 9.339000 6.738000 31.900999 # 2OT TIP3
344 115 1 0.423800 8.904000 7.236000 32.633999 # 1HT TIP3
345 115 1 0.423800 9.404000 5.838000 32.222000 # 1HT TIP3
346 116 2 -0.847600 15.414000 6.569000 2.501000 # 2OT TIP3
347 116 1 0.423800 16.224001 6.858000 2.128000 # 1HT TIP3
348 116 1 0.423800 14.808000 6.700000 1.671000 # 1HT TIP3
349 117 2 -0.847600 7.571000 3.798000 34.095001 # 2OT TIP3
350 117 1 0.423800 6.966000 4.404000 33.493999 # 1HT TIP3
351 117 1 0.423800 7.446000 4.095000 35.028000 # 1HT TIP3
352 118 2 -0.847600 43.257999 7.556000 47.455002 # 2OT TIP3
353 118 1 0.423800 42.729000 6.998000 48.049999 # 1HT TIP3
354 118 1 0.423800 43.926998 7.908000 48.047001 # 1HT TIP3
355 119 2 -0.847600 47.908001 15.278000 47.421001 # 2OT TIP3
356 119 1 0.423800 47.942001 15.294000 46.490002 # 1HT TIP3
357 119 1 0.423800 46.995998 14.903000 47.564999 # 1HT TIP3
358 120 2 -0.847600 9.935000 12.876000 10.191000 # 2OT TIP3
359 120 1 0.423800 9.709000 12.098000 9.634000 # 1HT TIP3
360 120 1 0.423800 9.472000 12.766000 11.018000 # 1HT TIP3
361 121 2 -0.847600 5.112000 48.289001 11.960000 # 2OT TIP3
362 121 1 0.423800 5.437000 47.363998 12.051000 # 1HT TIP3
363 121 1 0.423800 5.691000 48.919998 12.424000 # 1HT TIP3
364 122 2 -0.847600 7.060000 2.074000 19.830000 # 2OT TIP3
365 122 1 0.423800 7.650000 1.619000 20.528000 # 1HT TIP3
366 122 1 0.423800 6.148000 1.796000 20.035000 # 1HT TIP3
367 123 2 -0.847600 10.895000 19.325001 39.063999 # 2OT TIP3
368 123 1 0.423800 10.367000 18.768000 39.668999 # 1HT TIP3
369 123 1 0.423800 11.786000 18.958000 39.229000 # 1HT TIP3
370 124 2 -0.847600 9.957000 14.780000 48.733002 # 2OT TIP3
371 124 1 0.423800 10.058000 14.175000 47.972000 # 1HT TIP3
372 124 1 0.423800 9.107000 15.196000 48.518002 # 1HT TIP3
373 125 2 -0.847600 13.891000 1.919000 2.992000 # 2OT TIP3
374 125 1 0.423800 14.198000 2.681000 3.422000 # 1HT TIP3
375 125 1 0.423800 13.212000 1.577000 3.578000 # 1HT TIP3
376 126 2 -0.847600 8.823000 10.581000 8.827000 # 2OT TIP3
377 126 1 0.423800 8.183000 10.753000 8.148000 # 1HT TIP3
378 126 1 0.423800 8.389000 10.061000 9.534000 # 1HT TIP3
379 127 2 -0.847600 9.078000 11.967000 12.734000 # 2OT TIP3
380 127 1 0.423800 8.228000 11.561000 12.993000 # 1HT TIP3
381 127 1 0.423800 9.512000 12.194000 13.560000 # 1HT TIP3
382 128 2 -0.847600 8.369000 17.158001 48.436001 # 2OT TIP3
383 128 1 0.423800 7.983000 17.021000 47.575001 # 1HT TIP3
384 128 1 0.423800 7.764000 17.888000 48.785000 # 1HT TIP3
385 129 2 -0.847600 10.282000 0.640000 2.053000 # 2OT TIP3
386 129 1 0.423800 10.367000 0.959000 3.016000 # 1HT TIP3
387 129 1 0.423800 9.743000 1.323000 1.667000 # 1HT TIP3
388 130 2 -0.847600 4.618000 8.125000 7.777000 # 2OT TIP3
389 130 1 0.423800 5.405000 7.919000 8.314000 # 1HT TIP3
390 130 1 0.423800 4.002000 8.458000 8.422000 # 1HT TIP3
391 131 2 -0.847600 3.403000 4.687000 9.815000 # 2OT TIP3
392 131 1 0.423800 3.109000 5.272000 9.097000 # 1HT TIP3
393 131 1 0.423800 3.817000 3.973000 9.327000 # 1HT TIP3
394 132 2 -0.847600 3.276000 7.465000 19.325001 # 2OT TIP3
395 132 1 0.423800 2.772000 6.991000 19.964001 # 1HT TIP3
396 132 1 0.423800 3.604000 8.288000 19.753000 # 1HT TIP3
397 133 2 -0.847600 2.891000 5.044000 32.612999 # 2OT TIP3
398 133 1 0.423800 2.260000 4.520000 33.150002 # 1HT TIP3
399 133 1 0.423800 2.303000 5.510000 32.020000 # 1HT TIP3
400 134 2 -0.847600 1.840000 8.265000 28.662001 # 2OT TIP3
401 134 1 0.423800 1.680000 8.044000 27.747000 # 1HT TIP3
402 134 1 0.423800 1.834000 9.211000 28.733000 # 1HT TIP3
403 135 2 -0.847600 9.700000 13.093000 46.444000 # 2OT TIP3
404 135 1 0.423800 10.512000 13.155000 46.012001 # 1HT TIP3
405 135 1 0.423800 9.781000 12.193000 46.755001 # 1HT TIP3
406 136 2 -0.847600 0.737000 17.902000 37.090000 # 2OT TIP3
407 136 1 0.423800 0.459000 18.792000 37.352001 # 1HT TIP3
408 136 1 0.423800 0.866000 17.948999 36.146999 # 1HT TIP3
409 137 2 -0.847600 9.978000 7.875000 24.948000 # 2OT TIP3
410 137 1 0.423800 9.589000 7.626000 25.844999 # 1HT TIP3
411 137 1 0.423800 10.436000 8.656000 25.187000 # 1HT TIP3
412 138 2 -0.847600 9.927000 4.185000 32.805000 # 2OT TIP3
413 138 1 0.423800 9.056000 3.935000 33.202000 # 1HT TIP3
414 138 1 0.423800 10.360000 3.325000 32.665001 # 1HT TIP3
415 139 2 -0.847600 20.764999 16.218000 48.372002 # 2OT TIP3
416 139 1 0.423800 20.822001 16.158001 47.389999 # 1HT TIP3
417 139 1 0.423800 21.594999 15.857000 48.699001 # 1HT TIP3
418 140 2 -0.847600 3.119000 10.325000 13.158000 # 2OT TIP3
419 140 1 0.423800 3.598000 10.900000 12.512000 # 1HT TIP3
420 140 1 0.423800 3.440000 9.430000 12.962000 # 1HT TIP3
421 141 2 -0.847600 2.378000 5.806000 16.253000 # 2OT TIP3
422 141 1 0.423800 2.157000 6.161000 17.099001 # 1HT TIP3
423 141 1 0.423800 3.301000 6.032000 16.125999 # 1HT TIP3
424 142 2 -0.847600 6.382000 22.271000 2.319000 # 2OT TIP3
425 142 1 0.423800 5.550000 22.035000 1.847000 # 1HT TIP3
426 142 1 0.423800 6.859000 21.472000 2.192000 # 1HT TIP3
427 143 2 -0.847600 31.804001 12.756000 7.052000 # 2OT TIP3
428 143 1 0.423800 31.542999 13.642000 6.731000 # 1HT TIP3
429 143 1 0.423800 32.291000 12.930000 7.867000 # 1HT TIP3
430 144 2 -0.847600 4.017000 3.905000 19.417999 # 2OT TIP3
431 144 1 0.423800 3.142000 4.042000 19.132000 # 1HT TIP3
432 144 1 0.423800 4.582000 4.727000 19.295000 # 1HT TIP3
433 145 2 -0.847600 2.344000 20.472000 21.631001 # 2OT TIP3
434 145 1 0.423800 2.932000 20.820999 20.945000 # 1HT TIP3
435 145 1 0.423800 1.467000 20.548000 21.138000 # 1HT TIP3
436 146 2 -0.847600 20.613001 13.616000 11.066000 # 2OT TIP3
437 146 1 0.423800 20.739000 13.959000 10.218000 # 1HT TIP3
438 146 1 0.423800 19.618999 13.816000 11.250000 # 1HT TIP3
439 147 2 -0.847600 11.492000 5.548000 34.846001 # 2OT TIP3
440 147 1 0.423800 11.163000 5.204000 34.040001 # 1HT TIP3
441 147 1 0.423800 11.386000 6.479000 34.859001 # 1HT TIP3
442 148 2 -0.847600 1.787000 9.518000 24.514999 # 2OT TIP3
443 148 1 0.423800 2.132000 9.575000 23.646000 # 1HT TIP3
444 148 1 0.423800 1.860000 10.406000 24.787001 # 1HT TIP3
445 149 2 -0.847600 4.127000 1.870000 32.761002 # 2OT TIP3
446 149 1 0.423800 3.830000 2.272000 31.989000 # 1HT TIP3
447 149 1 0.423800 4.730000 2.562000 33.098000 # 1HT TIP3
448 150 2 -0.847600 14.526000 10.532000 20.136999 # 2OT TIP3
449 150 1 0.423800 14.162000 9.733000 20.503000 # 1HT TIP3
450 150 1 0.423800 14.466000 10.420000 19.194000 # 1HT TIP3
451 151 2 -0.847600 26.124001 16.594000 16.806999 # 2OT TIP3
452 151 1 0.423800 26.948000 16.864000 17.243999 # 1HT TIP3
453 151 1 0.423800 26.136999 17.048000 15.900000 # 1HT TIP3
454 152 2 -0.847600 8.876000 28.437000 5.579000 # 2OT TIP3
455 152 1 0.423800 9.227000 27.577000 5.358000 # 1HT TIP3
456 152 1 0.423800 8.790000 28.398001 6.533000 # 1HT TIP3
457 153 2 -0.847600 5.573000 14.804000 19.090000 # 2OT TIP3
458 153 1 0.423800 5.959000 15.339000 19.808001 # 1HT TIP3
459 153 1 0.423800 5.869000 15.413000 18.330999 # 1HT TIP3
460 154 2 -0.847600 16.283001 7.354000 22.781000 # 2OT TIP3
461 154 1 0.423800 15.640000 8.058000 22.448999 # 1HT TIP3
462 154 1 0.423800 15.973000 6.560000 22.379000 # 1HT TIP3
463 155 2 -0.847600 22.872000 18.441000 16.788000 # 2OT TIP3
464 155 1 0.423800 22.201000 17.864000 16.379000 # 1HT TIP3
465 155 1 0.423800 22.334999 18.981001 17.424999 # 1HT TIP3
466 156 2 -0.847600 10.105000 0.841000 39.111000 # 2OT TIP3
467 156 1 0.423800 9.488000 1.450000 38.631001 # 1HT TIP3
468 156 1 0.423800 10.632000 1.418000 39.705002 # 1HT TIP3
469 157 2 -0.847600 0.742000 20.646999 37.424000 # 2OT TIP3
470 157 1 0.423800 0.163000 21.202000 36.855000 # 1HT TIP3
471 157 1 0.423800 1.532000 20.410000 36.837002 # 1HT TIP3
472 158 2 -0.847600 2.007000 13.254000 48.653000 # 2OT TIP3
473 158 1 0.423800 1.633000 13.133000 47.752998 # 1HT TIP3
474 158 1 0.423800 2.082000 14.201000 48.654999 # 1HT TIP3
475 159 2 -0.847600 5.458000 13.097000 4.589000 # 2OT TIP3
476 159 1 0.423800 5.673000 13.019000 3.612000 # 1HT TIP3
477 159 1 0.423800 4.899000 13.894000 4.657000 # 1HT TIP3
478 160 2 -0.847600 27.849001 9.868000 19.173000 # 2OT TIP3
479 160 1 0.423800 27.170000 9.720000 19.863001 # 1HT TIP3
480 160 1 0.423800 27.403000 10.419000 18.489000 # 1HT TIP3
481 161 2 -0.847600 4.552000 1.370000 20.330000 # 2OT TIP3
482 161 1 0.423800 4.274000 2.194000 19.952999 # 1HT TIP3
483 161 1 0.423800 4.235000 0.801000 19.570999 # 1HT TIP3
484 162 2 -0.847600 4.594000 25.266001 15.200000 # 2OT TIP3
485 162 1 0.423800 3.638000 25.500000 15.196000 # 1HT TIP3
486 162 1 0.423800 4.758000 24.896999 14.312000 # 1HT TIP3
487 163 2 -0.847600 10.966000 0.487000 27.664000 # 2OT TIP3
488 163 1 0.423800 10.835000 1.423000 27.475000 # 1HT TIP3
489 163 1 0.423800 10.558000 0.092000 26.882999 # 1HT TIP3
490 164 2 -0.847600 6.580000 12.992000 29.691000 # 2OT TIP3
491 164 1 0.423800 6.430000 13.886000 29.972000 # 1HT TIP3
492 164 1 0.423800 6.429000 12.499000 30.481001 # 1HT TIP3
493 165 2 -0.847600 5.160000 13.744000 7.954000 # 2OT TIP3
494 165 1 0.423800 6.048000 13.422000 8.207000 # 1HT TIP3
495 165 1 0.423800 5.008000 14.493000 8.528000 # 1HT TIP3
496 166 2 -0.847600 1.488000 7.754000 31.837999 # 2OT TIP3
497 166 1 0.423800 0.778000 8.323000 32.195000 # 1HT TIP3
498 166 1 0.423800 1.543000 8.043000 30.921000 # 1HT TIP3
499 167 2 -0.847600 3.348000 27.087000 44.368999 # 2OT TIP3
500 167 1 0.423800 3.847000 27.254999 45.224998 # 1HT TIP3
501 167 1 0.423800 2.813000 26.334999 44.660999 # 1HT TIP3
502 168 2 -0.847600 10.390000 6.386000 18.827999 # 2OT TIP3
503 168 1 0.423800 10.688000 6.484000 19.731001 # 1HT TIP3
504 168 1 0.423800 9.844000 5.589000 18.921000 # 1HT TIP3
505 169 2 -0.847600 1.678000 21.941999 1.035000 # 2OT TIP3
506 169 1 0.423800 1.272000 21.280001 1.592000 # 1HT TIP3