LAMMPS data file. CGCMM style. atom_style full generated by VMD/TopoTools v1.7 on Thu Jan 12 15:24:14 IST 2023
 4500 atoms
 3000 bonds
 1500 angles
 0 dihedrals
 0 impropers
 2 atom types
 1 bond types
 1 angle types
 0 dihedral types
 0 improper types
  -0.0220 35.5560  xlo xhi
  -0.0450 35.6000  ylo yhi
  -0.0230 35.5900  zlo zhi

# Pair Coeffs
#
# 1  1HT
# 2  2OT

# Bond Coeffs
#
# 1  1HT-2OT

# Angle Coeffs
#
# 1  1HT-2OT-1HT

 Masses

 1 1.007940 # 1HT
 2 15.999400 # 2OT

 Atoms # full

1 1 2 -0.847600 27.504999 15.700000 7.203000 # 2OT SPC
2 1 1 0.423800 27.080000 14.762000 6.877000 # 1HT SPC
3 1 1 0.423800 27.094000 15.967000 8.165000 # 1HT SPC
4 2 2 -0.847600 11.235000 17.465000 14.346000 # 2OT SPC
5 2 1 0.423800 10.559000 17.604000 13.516000 # 1HT SPC
6 2 1 0.423800 10.938000 18.104000 15.164000 # 1HT SPC
7 3 2 -0.847600 18.275999 0.130000 15.543000 # 2OT SPC
8 3 1 0.423800 17.811001 1.094000 15.687000 # 1HT SPC
9 3 1 0.423800 18.527000 0.003000 14.501000 # 1HT SPC
10 4 2 -0.847600 27.983999 6.352000 16.625999 # 2OT SPC
11 4 1 0.423800 28.947001 6.269000 16.145000 # 1HT SPC
12 4 1 0.423800 27.205999 6.098000 15.921000 # 1HT SPC
13 5 2 -0.847600 24.877001 10.900000 34.834999 # 2OT SPC
14 5 1 0.423800 24.921000 10.266000 33.960999 # 1HT SPC
15 5 1 0.423800 25.757000 10.739000 35.439999 # 1HT SPC
16 6 2 -0.847600 11.012000 33.240002 1.164000 # 2OT SPC
17 6 1 0.423800 11.303000 33.716999 2.088000 # 1HT SPC
18 6 1 0.423800 10.915000 32.176998 1.322000 # 1HT SPC
19 7 2 -0.847600 18.478001 31.652000 9.690000 # 2OT SPC
20 7 1 0.423800 19.198000 31.090000 9.114000 # 1HT SPC
21 7 1 0.423800 17.982000 32.365002 9.049000 # 1HT SPC
22 8 2 -0.847600 34.835999 25.034000 26.219000 # 2OT SPC
23 8 1 0.423800 33.971001 24.455000 25.930000 # 1HT SPC
24 8 1 0.423800 35.528999 25.084000 25.392000 # 1HT SPC
25 9 2 -0.847600 21.230000 18.443001 34.919998 # 2OT SPC
26 9 1 0.423800 20.893000 18.412001 33.895000 # 1HT SPC
27 9 1 0.423800 20.600000 17.809000 35.526001 # 1HT SPC
28 10 2 -0.847600 32.605999 33.146000 32.261002 # 2OT SPC
29 10 1 0.423800 32.796001 34.194000 32.085999 # 1HT SPC
30 10 1 0.423800 33.518002 32.661999 32.577000 # 1HT SPC
31 11 2 -0.847600 3.565000 14.868000 15.602000 # 2OT SPC
32 11 1 0.423800 3.191000 14.493000 14.660000 # 1HT SPC
33 11 1 0.423800 4.521000 14.416000 15.816000 # 1HT SPC
34 12 2 -0.847600 10.914000 16.347000 0.613000 # 2OT SPC
35 12 1 0.423800 11.942000 16.240000 0.301000 # 1HT SPC
36 12 1 0.423800 10.854000 16.270000 1.689000 # 1HT SPC
37 13 2 -0.847600 13.118000 25.375999 4.981000 # 2OT SPC
38 13 1 0.423800 13.580000 25.540001 5.944000 # 1HT SPC
39 13 1 0.423800 13.290000 24.357000 4.669000 # 1HT SPC
40 14 2 -0.847600 32.266998 23.054001 13.066000 # 2OT SPC
41 14 1 0.423800 31.785999 22.507999 12.268000 # 1HT SPC
42 14 1 0.423800 31.700001 23.945999 13.286000 # 1HT SPC
43 15 2 -0.847600 11.474000 26.183001 34.848000 # 2OT SPC
44 15 1 0.423800 12.493000 25.826000 34.890999 # 1HT SPC
45 15 1 0.423800 10.865000 25.614000 35.534000 # 1HT SPC
46 16 2 -0.847600 7.742000 4.786000 28.305000 # 2OT SPC
47 16 1 0.423800 7.839000 4.016000 27.552999 # 1HT SPC
48 16 1 0.423800 6.789000 4.686000 28.802000 # 1HT SPC
49 17 2 -0.847600 24.072001 8.076000 15.077000 # 2OT SPC
50 17 1 0.423800 24.447001 9.061000 15.312000 # 1HT SPC
51 17 1 0.423800 23.159000 7.898000 15.624000 # 1HT SPC
52 18 2 -0.847600 11.908000 7.974000 26.888000 # 2OT SPC
53 18 1 0.423800 11.639000 7.044000 27.365999 # 1HT SPC
54 18 1 0.423800 11.052000 8.368000 26.361000 # 1HT SPC
55 19 2 -0.847600 33.750999 19.858000 14.289000 # 2OT SPC
56 19 1 0.423800 33.112000 20.490000 13.688000 # 1HT SPC
57 19 1 0.423800 33.835999 20.274000 15.282000 # 1HT SPC
58 20 2 -0.847600 31.853001 30.547001 31.792000 # 2OT SPC
59 20 1 0.423800 31.275000 31.400000 32.118000 # 1HT SPC
60 20 1 0.423800 32.785000 30.886000 31.365000 # 1HT SPC
61 21 2 -0.847600 18.945000 17.958000 26.799000 # 2OT SPC
62 21 1 0.423800 19.952000 17.705999 27.098000 # 1HT SPC
63 21 1 0.423800 18.261000 17.211000 27.171000 # 1HT SPC
64 22 2 -0.847600 1.026000 21.059999 23.153999 # 2OT SPC
65 22 1 0.423800 1.616000 20.973000 24.054001 # 1HT SPC
66 22 1 0.423800 1.681000 21.099001 22.297001 # 1HT SPC
67 23 2 -0.847600 23.391001 3.074000 4.313000 # 2OT SPC
68 23 1 0.423800 24.448000 2.917000 4.472000 # 1HT SPC
69 23 1 0.423800 23.184999 3.094000 3.253000 # 1HT SPC
70 24 2 -0.847600 8.877000 35.507999 25.899000 # 2OT SPC
71 24 1 0.423800 8.100000 35.306000 25.177000 # 1HT SPC
72 24 1 0.423800 8.446000 35.553001 26.888000 # 1HT SPC
73 25 2 -0.847600 2.426000 0.498000 5.244000 # 2OT SPC
74 25 1 0.423800 1.381000 0.740000 5.373000 # 1HT SPC
75 25 1 0.423800 2.908000 0.458000 6.209000 # 1HT SPC
76 26 2 -0.847600 20.684999 24.791000 16.910000 # 2OT SPC
77 26 1 0.423800 21.367001 24.875999 16.077000 # 1HT SPC
78 26 1 0.423800 20.105000 25.698000 16.995001 # 1HT SPC
79 27 2 -0.847600 0.374000 32.886002 31.138000 # 2OT SPC
80 27 1 0.423800 0.001000 31.877001 31.037001 # 1HT SPC
81 27 1 0.423800 0.793000 33.209999 30.197001 # 1HT SPC
82 28 2 -0.847600 23.398001 13.371000 29.754000 # 2OT SPC
83 28 1 0.423800 24.080999 14.189000 29.576000 # 1HT SPC
84 28 1 0.423800 22.643999 13.357000 28.981001 # 1HT SPC
85 29 2 -0.847600 8.744000 31.784000 11.833000 # 2OT SPC
86 29 1 0.423800 8.147000 30.898001 11.669000 # 1HT SPC
87 29 1 0.423800 8.933000 31.900999 12.889000 # 1HT SPC
88 30 2 -0.847600 14.140000 32.655998 1.238000 # 2OT SPC
89 30 1 0.423800 13.311000 33.327000 1.063000 # 1HT SPC
90 30 1 0.423800 14.646000 32.458000 0.305000 # 1HT SPC
91 31 2 -0.847600 0.686000 2.735000 17.197001 # 2OT SPC
92 31 1 0.423800 1.512000 2.510000 17.857000 # 1HT SPC
93 31 1 0.423800 0.275000 3.700000 17.451000 # 1HT SPC
94 32 2 -0.847600 8.653000 2.933000 9.082000 # 2OT SPC
95 32 1 0.423800 7.626000 3.268000 9.063000 # 1HT SPC
96 32 1 0.423800 8.799000 2.175000 8.328000 # 1HT SPC
97 33 2 -0.847600 16.451000 20.281000 21.483000 # 2OT SPC
98 33 1 0.423800 16.916000 20.872000 20.707001 # 1HT SPC
99 33 1 0.423800 15.673000 19.670000 21.051001 # 1HT SPC
100 34 2 -0.847600 10.412000 11.180000 30.408001 # 2OT SPC
101 34 1 0.423800 10.530000 12.202000 30.737000 # 1HT SPC
102 34 1 0.423800 10.717000 10.511000 31.198000 # 1HT SPC
103 35 2 -0.847600 0.527000 33.514000 27.415001 # 2OT SPC
104 35 1 0.423800 -0.000000 32.939999 28.163000 # 1HT SPC
105 35 1 0.423800 -0.007000 34.433998 27.226000 # 1HT SPC
106 36 2 -0.847600 27.274000 3.810000 28.391001 # 2OT SPC
107 36 1 0.423800 27.160999 4.874000 28.246000 # 1HT SPC
108 36 1 0.423800 26.961000 3.547000 29.389999 # 1HT SPC
109 37 2 -0.847600 14.039000 1.224000 1.059000 # 2OT SPC
110 37 1 0.423800 14.856000 0.536000 0.896000 # 1HT SPC
111 37 1 0.423800 13.539000 1.417000 0.121000 # 1HT SPC
112 38 2 -0.847600 20.851000 16.056000 8.366000 # 2OT SPC
113 38 1 0.423800 19.917000 15.627000 8.036000 # 1HT SPC
114 38 1 0.423800 21.559999 16.046000 7.552000 # 1HT SPC
115 39 2 -0.847600 20.673000 21.164000 13.991000 # 2OT SPC
116 39 1 0.423800 20.546000 21.934999 14.736000 # 1HT SPC
117 39 1 0.423800 19.830000 21.172001 13.316000 # 1HT SPC
118 40 2 -0.847600 21.447001 29.646000 16.379000 # 2OT SPC
119 40 1 0.423800 20.601000 29.353001 16.982000 # 1HT SPC
120 40 1 0.423800 21.205000 29.520000 15.334000 # 1HT SPC
121 41 2 -0.847600 7.524000 32.979000 9.964000 # 2OT SPC
122 41 1 0.423800 6.900000 32.286999 10.509000 # 1HT SPC
123 41 1 0.423800 7.367000 33.979000 10.341000 # 1HT SPC
124 42 2 -0.847600 15.908000 16.830999 0.873000 # 2OT SPC
125 42 1 0.423800 16.146999 15.839000 0.519000 # 1HT SPC
126 42 1 0.423800 15.724000 16.799000 1.936000 # 1HT SPC
127 43 2 -0.847600 9.140000 8.511000 5.542000 # 2OT SPC
128 43 1 0.423800 9.936000 7.782000 5.576000 # 1HT SPC
129 43 1 0.423800 9.141000 9.000000 4.579000 # 1HT SPC
130 44 2 -0.847600 31.893000 5.224000 27.556000 # 2OT SPC
131 44 1 0.423800 31.993000 4.240000 27.124001 # 1HT SPC
132 44 1 0.423800 31.974001 5.969000 26.778999 # 1HT SPC
133 45 2 -0.847600 1.657000 7.717000 30.084999 # 2OT SPC
134 45 1 0.423800 1.205000 6.793000 29.756001 # 1HT SPC
135 45 1 0.423800 2.104000 7.573000 31.056999 # 1HT SPC
136 46 2 -0.847600 7.675000 18.600000 12.160000 # 2OT SPC
137 46 1 0.423800 8.136000 17.627001 12.242000 # 1HT SPC
138 46 1 0.423800 6.999000 18.608999 11.319000 # 1HT SPC
139 47 2 -0.847600 23.250000 5.248000 25.150000 # 2OT SPC
140 47 1 0.423800 23.014000 4.214000 25.354000 # 1HT SPC
141 47 1 0.423800 24.221001 5.311000 24.681999 # 1HT SPC
142 48 2 -0.847600 32.691002 22.153000 15.273000 # 2OT SPC
143 48 1 0.423800 33.453999 22.853001 14.966000 # 1HT SPC
144 48 1 0.423800 32.380001 22.377001 16.282000 # 1HT SPC
145 49 2 -0.847600 21.283001 15.491000 10.452000 # 2OT SPC
146 49 1 0.423800 21.952000 16.101000 11.042000 # 1HT SPC
147 49 1 0.423800 20.625000 14.941000 11.108000 # 1HT SPC
148 50 2 -0.847600 0.694000 30.559999 2.541000 # 2OT SPC
149 50 1 0.423800 1.726000 30.260000 2.646000 # 1HT SPC
150 50 1 0.423800 0.323000 30.912001 3.492000 # 1HT SPC
151 51 2 -0.847600 13.761000 16.017000 2.727000 # 2OT SPC
152 51 1 0.423800 12.929000 16.704000 2.776000 # 1HT SPC
153 51 1 0.423800 13.432000 15.032000 3.023000 # 1HT SPC
154 52 2 -0.847600 32.820999 27.537001 4.567000 # 2OT SPC
155 52 1 0.423800 33.625999 26.962999 4.133000 # 1HT SPC
156 52 1 0.423800 32.108002 27.796000 3.798000 # 1HT SPC
157 53 2 -0.847600 18.628000 26.333000 21.565001 # 2OT SPC
158 53 1 0.423800 19.469000 25.679001 21.385000 # 1HT SPC
159 53 1 0.423800 18.485001 26.979000 20.712000 # 1HT SPC
160 54 2 -0.847600 11.465000 9.668000 13.245000 # 2OT SPC
161 54 1 0.423800 10.874000 8.864000 12.832000 # 1HT SPC
162 54 1 0.423800 11.342000 9.690000 14.318000 # 1HT SPC
163 55 2 -0.847600 28.427999 28.434000 5.926000 # 2OT SPC
164 55 1 0.423800 27.465000 27.999001 6.149000 # 1HT SPC
165 55 1 0.423800 28.813999 28.924999 6.806000 # 1HT SPC
166 56 2 -0.847600 29.516001 18.972000 17.184000 # 2OT SPC
167 56 1 0.423800 30.472000 19.054001 16.687000 # 1HT SPC
168 56 1 0.423800 28.747999 19.402000 16.559000 # 1HT SPC
169 57 2 -0.847600 22.648001 3.250000 10.085000 # 2OT SPC
170 57 1 0.423800 23.030001 2.923000 11.040000 # 1HT SPC
171 57 1 0.423800 22.447001 2.390000 9.463000 # 1HT SPC
172 58 2 -0.847600 34.905998 1.135000 19.655001 # 2OT SPC
173 58 1 0.423800 35.527000 0.316000 19.325001 # 1HT SPC
174 58 1 0.423800 35.527000 1.990000 19.879999 # 1HT SPC
175 59 2 -0.847600 26.646000 15.516000 1.175000 # 2OT SPC
176 59 1 0.423800 25.591000 15.740000 1.132000 # 1HT SPC
177 59 1 0.423800 26.787001 14.514000 1.550000 # 1HT SPC
178 60 2 -0.847600 29.653000 7.742000 14.671000 # 2OT SPC
179 60 1 0.423800 29.843000 6.787000 14.203000 # 1HT SPC
180 60 1 0.423800 29.980000 8.535000 14.015000 # 1HT SPC
181 61 2 -0.847600 28.305000 24.150999 30.118000 # 2OT SPC
182 61 1 0.423800 28.510000 25.211000 30.073999 # 1HT SPC
183 61 1 0.423800 29.143000 23.605000 29.712000 # 1HT SPC
184 62 2 -0.847600 17.150000 34.799000 35.508999 # 2OT SPC
185 62 1 0.423800 17.945999 35.529999 35.491001 # 1HT SPC
186 62 1 0.423800 17.034000 34.369999 34.525002 # 1HT SPC
187 63 2 -0.847600 19.618999 29.959000 34.597000 # 2OT SPC
188 63 1 0.423800 19.354000 29.392000 35.478001 # 1HT SPC
189 63 1 0.423800 20.424000 30.638000 34.834999 # 1HT SPC
190 64 2 -0.847600 31.966999 32.671001 18.915001 # 2OT SPC
191 64 1 0.423800 31.306999 32.216999 19.639999 # 1HT SPC
192 64 1 0.423800 32.990002 32.423000 19.155001 # 1HT SPC
193 65 2 -0.847600 26.035999 18.806000 8.175000 # 2OT SPC
194 65 1 0.423800 25.129999 18.833000 7.587000 # 1HT SPC
195 65 1 0.423800 26.091000 17.870001 8.709000 # 1HT SPC
196 66 2 -0.847600 4.570000 34.583000 2.691000 # 2OT SPC
197 66 1 0.423800 4.597000 35.019001 1.703000 # 1HT SPC
198 66 1 0.423800 4.517000 33.507999 2.609000 # 1HT SPC
199 67 2 -0.847600 6.183000 0.723000 7.550000 # 2OT SPC
200 67 1 0.423800 6.414000 0.004000 6.778000 # 1HT SPC
201 67 1 0.423800 5.903000 1.662000 7.096000 # 1HT SPC
202 68 2 -0.847600 29.792000 9.023000 7.915000 # 2OT SPC
203 68 1 0.423800 28.806999 9.434000 8.083000 # 1HT SPC
204 68 1 0.423800 29.990000 8.985000 6.854000 # 1HT SPC
205 69 2 -0.847600 12.836000 11.969000 14.888000 # 2OT SPC
206 69 1 0.423800 13.796000 11.903000 14.396000 # 1HT SPC
207 69 1 0.423800 12.728000 12.945000 15.337000 # 1HT SPC
208 70 2 -0.847600 27.612000 13.068000 4.257000 # 2OT SPC
209 70 1 0.423800 27.049999 12.209000 3.920000 # 1HT SPC
210 70 1 0.423800 28.225000 13.437000 3.449000 # 1HT SPC
211 71 2 -0.847600 22.323999 31.344000 8.063000 # 2OT SPC
212 71 1 0.423800 21.952999 30.347000 7.873000 # 1HT SPC
213 71 1 0.423800 22.561001 31.447001 9.111000 # 1HT SPC
214 72 2 -0.847600 10.856000 0.180000 5.301000 # 2OT SPC
215 72 1 0.423800 10.056000 0.844000 5.595000 # 1HT SPC
216 72 1 0.423800 11.514000 0.016000 6.141000 # 1HT SPC
217 73 2 -0.847600 8.950000 26.257000 33.043999 # 2OT SPC
218 73 1 0.423800 9.555000 25.726999 33.764000 # 1HT SPC
219 73 1 0.423800 9.097000 25.827000 32.063999 # 1HT SPC
220 74 2 -0.847600 27.372999 25.486000 1.794000 # 2OT SPC
221 74 1 0.423800 27.620001 26.441000 1.354000 # 1HT SPC
222 74 1 0.423800 28.186001 24.794001 1.634000 # 1HT SPC
223 75 2 -0.847600 21.669001 33.617001 1.066000 # 2OT SPC
224 75 1 0.423800 22.018999 34.578999 0.720000 # 1HT SPC
225 75 1 0.423800 21.995001 33.459999 2.083000 # 1HT SPC
226 76 2 -0.847600 1.854000 30.576000 25.257000 # 2OT SPC
227 76 1 0.423800 0.908000 30.096001 25.459999 # 1HT SPC
228 76 1 0.423800 2.004000 31.386999 25.954000 # 1HT SPC
229 77 2 -0.847600 27.125999 9.139000 10.849000 # 2OT SPC
230 77 1 0.423800 26.270000 9.722000 10.540000 # 1HT SPC
231 77 1 0.423800 27.100000 8.176000 10.360000 # 1HT SPC
232 78 2 -0.847600 34.007000 12.635000 6.766000 # 2OT SPC
233 78 1 0.423800 33.448002 13.522000 6.507000 # 1HT SPC
234 78 1 0.423800 33.410999 12.009000 7.412000 # 1HT SPC
235 79 2 -0.847600 31.469000 21.403999 28.986000 # 2OT SPC
236 79 1 0.423800 31.009001 21.885000 29.837000 # 1HT SPC
237 79 1 0.423800 30.718000 21.202000 28.237000 # 1HT SPC
238 80 2 -0.847600 3.642000 30.414000 5.067000 # 2OT SPC
239 80 1 0.423800 3.077000 29.530001 4.810000 # 1HT SPC
240 80 1 0.423800 3.014000 31.093000 5.624000 # 1HT SPC
241 81 2 -0.847600 27.478001 2.271000 19.045000 # 2OT SPC
242 81 1 0.423800 27.208000 3.111000 19.667000 # 1HT SPC
243 81 1 0.423800 28.320000 2.538000 18.424999 # 1HT SPC
244 82 2 -0.847600 16.291000 23.908001 17.313000 # 2OT SPC
245 82 1 0.423800 15.539000 24.634001 17.041000 # 1HT SPC
246 82 1 0.423800 16.481001 23.254999 16.475000 # 1HT SPC
247 83 2 -0.847600 14.723000 14.057000 35.097000 # 2OT SPC
248 83 1 0.423800 14.136000 13.260000 35.529999 # 1HT SPC
249 83 1 0.423800 14.219000 14.440000 34.222000 # 1HT SPC
250 84 2 -0.847600 7.397000 27.438000 16.971001 # 2OT SPC
251 84 1 0.423800 7.118000 26.966000 17.902000 # 1HT SPC
252 84 1 0.423800 7.487000 28.503000 17.120001 # 1HT SPC
253 85 2 -0.847600 29.853001 25.111000 19.108999 # 2OT SPC
254 85 1 0.423800 30.174999 26.010000 19.614000 # 1HT SPC
255 85 1 0.423800 28.775999 25.047001 19.136999 # 1HT SPC
256 86 2 -0.847600 17.747000 30.209999 30.721001 # 2OT SPC
257 86 1 0.423800 17.152000 30.882000 30.118999 # 1HT SPC
258 86 1 0.423800 18.007000 29.339001 30.138000 # 1HT SPC
259 87 2 -0.847600 24.389999 17.548000 4.308000 # 2OT SPC
260 87 1 0.423800 23.736000 17.955999 3.551000 # 1HT SPC
261 87 1 0.423800 24.525000 18.274000 5.095000 # 1HT SPC
262 88 2 -0.847600 17.736000 8.593000 19.601999 # 2OT SPC
263 88 1 0.423800 17.500999 8.620000 20.656000 # 1HT SPC
264 88 1 0.423800 17.166000 7.810000 19.125000 # 1HT SPC
265 89 2 -0.847600 0.392000 22.083000 19.202999 # 2OT SPC
266 89 1 0.423800 0.166000 21.183001 19.757000 # 1HT SPC
267 89 1 0.423800 1.145000 22.650000 19.730000 # 1HT SPC
268 90 2 -0.847600 11.241000 0.069000 9.846000 # 2OT SPC
269 90 1 0.423800 12.093000 0.014000 9.185000 # 1HT SPC
270 90 1 0.423800 11.578000 0.035000 10.872000 # 1HT SPC
271 91 2 -0.847600 5.686000 16.538000 21.039000 # 2OT SPC
272 91 1 0.423800 6.690000 16.285000 20.733000 # 1HT SPC
273 91 1 0.423800 5.444000 17.532000 20.693001 # 1HT SPC
274 92 2 -0.847600 5.511000 13.965000 21.148001 # 2OT SPC
275 92 1 0.423800 4.637000 13.331000 21.186001 # 1HT SPC
276 92 1 0.423800 5.539000 14.484000 20.202000 # 1HT SPC
277 93 2 -0.847600 24.011999 18.326000 11.983000 # 2OT SPC
278 93 1 0.423800 23.709000 19.041000 12.734000 # 1HT SPC
279 93 1 0.423800 24.667000 17.591999 12.429000 # 1HT SPC
280 94 2 -0.847600 3.883000 34.376999 27.629000 # 2OT SPC
281 94 1 0.423800 4.659000 33.792000 27.158001 # 1HT SPC
282 94 1 0.423800 4.139000 35.424000 27.577000 # 1HT SPC
283 95 2 -0.847600 22.844999 32.349998 19.615999 # 2OT SPC
284 95 1 0.423800 23.749001 32.900002 19.399000 # 1HT SPC
285 95 1 0.423800 22.556999 32.520000 20.642000 # 1HT SPC
286 96 2 -0.847600 1.029000 31.208000 29.070000 # 2OT SPC
287 96 1 0.423800 -0.004000 30.903000 28.985001 # 1HT SPC
288 96 1 0.423800 1.461000 31.297001 28.084000 # 1HT SPC
289 97 2 -0.847600 10.855000 9.327000 29.371000 # 2OT SPC
290 97 1 0.423800 11.474000 8.452000 29.233999 # 1HT SPC
291 97 1 0.423800 10.372000 9.575000 28.438000 # 1HT SPC
292 98 2 -0.847600 21.201000 35.244999 5.041000 # 2OT SPC
293 98 1 0.423800 21.461000 35.026001 4.015000 # 1HT SPC
294 98 1 0.423800 20.159000 35.520000 5.098000 # 1HT SPC
295 99 2 -0.847600 12.930000 14.307000 6.814000 # 2OT SPC
296 99 1 0.423800 13.343000 13.631000 7.549000 # 1HT SPC
297 99 1 0.423800 11.869000 14.129000 6.718000 # 1HT SPC
298 100 2 -0.847600 0.298000 13.330000 1.709000 # 2OT SPC
299 100 1 0.423800 0.002000 12.411000 2.194000 # 1HT SPC
300 100 1 0.423800 1.314000 13.240000 1.355000 # 1HT SPC
301 101 2 -0.847600 6.731000 8.995000 15.610000 # 2OT SPC
302 101 1 0.423800 5.764000 9.234000 16.028999 # 1HT SPC
303 101 1 0.423800 7.352000 8.546000 16.371000 # 1HT SPC
304 102 2 -0.847600 26.754000 1.065000 27.694000 # 2OT SPC
305 102 1 0.423800 26.139000 1.545000 26.947001 # 1HT SPC
306 102 1 0.423800 26.775999 0.001000 27.513000 # 1HT SPC
307 103 2 -0.847600 22.624001 5.567000 19.850000 # 2OT SPC
308 103 1 0.423800 21.742001 5.154000 20.316999 # 1HT SPC
309 103 1 0.423800 22.385000 5.884000 18.846001 # 1HT SPC
310 104 2 -0.847600 26.174999 26.802999 19.809000 # 2OT SPC
311 104 1 0.423800 26.747000 26.864000 20.723000 # 1HT SPC
312 104 1 0.423800 25.229000 27.306999 19.941000 # 1HT SPC
313 105 2 -0.847600 30.295000 7.594000 9.767000 # 2OT SPC
314 105 1 0.423800 30.868000 8.504000 9.864000 # 1HT SPC
315 105 1 0.423800 30.794001 6.926000 9.080000 # 1HT SPC
316 106 2 -0.847600 26.152000 24.686001 28.083000 # 2OT SPC
317 106 1 0.423800 26.416000 23.955999 28.834000 # 1HT SPC
318 106 1 0.423800 25.504999 25.433001 28.518999 # 1HT SPC
319 107 2 -0.847600 22.733999 22.885000 22.455999 # 2OT SPC
320 107 1 0.423800 23.219999 23.409000 23.267000 # 1HT SPC
321 107 1 0.423800 22.641001 23.544001 21.606001 # 1HT SPC
322 108 2 -0.847600 32.561001 31.093000 24.466999 # 2OT SPC
323 108 1 0.423800 33.587002 30.761999 24.535000 # 1HT SPC
324 108 1 0.423800 31.905001 30.235001 24.479000 # 1HT SPC
325 109 2 -0.847600 12.104000 26.299999 0.720000 # 2OT SPC
326 109 1 0.423800 12.509000 27.187000 0.255000 # 1HT SPC
327 109 1 0.423800 11.495000 25.766001 0.007000 # 1HT SPC
328 110 2 -0.847600 4.184000 14.282000 24.104000 # 2OT SPC
329 110 1 0.423800 3.210000 13.906000 23.827000 # 1HT SPC
330 110 1 0.423800 4.820000 14.312000 23.232000 # 1HT SPC
331 111 2 -0.847600 14.866000 24.438999 14.701000 # 2OT SPC
332 111 1 0.423800 15.938000 24.483000 14.574000 # 1HT SPC
333 111 1 0.423800 14.527000 25.326000 15.213000 # 1HT SPC
334 112 2 -0.847600 31.889000 33.446999 23.551001 # 2OT SPC
335 112 1 0.423800 32.750000 33.277000 24.181000 # 1HT SPC
336 112 1 0.423800 32.004002 32.896000 22.629000 # 1HT SPC
337 113 2 -0.847600 6.722000 23.117001 3.337000 # 2OT SPC
338 113 1 0.423800 6.641000 22.117001 3.736000 # 1HT SPC
339 113 1 0.423800 6.672000 23.080000 2.259000 # 1HT SPC
340 114 2 -0.847600 18.131001 29.969000 15.317000 # 2OT SPC
341 114 1 0.423800 18.943001 29.339001 14.987000 # 1HT SPC
342 114 1 0.423800 17.584999 30.333000 14.460000 # 1HT SPC
343 115 2 -0.847600 34.806999 15.561000 26.917999 # 2OT SPC
344 115 1 0.423800 35.076000 16.584000 27.136999 # 1HT SPC
345 115 1 0.423800 33.741001 15.495000 26.764000 # 1HT SPC
346 116 2 -0.847600 29.104000 8.030000 17.511999 # 2OT SPC
347 116 1 0.423800 28.712000 8.231000 18.497999 # 1HT SPC
348 116 1 0.423800 29.318001 8.963000 17.011999 # 1HT SPC
349 117 2 -0.847600 1.626000 13.907000 11.671000 # 2OT SPC
350 117 1 0.423800 0.843000 14.604000 11.409000 # 1HT SPC
351 117 1 0.423800 1.783000 13.219000 10.855000 # 1HT SPC
352 118 2 -0.847600 17.881001 22.372999 14.567000 # 2OT SPC
353 118 1 0.423800 18.472000 22.146000 15.442000 # 1HT SPC
354 118 1 0.423800 17.753000 21.478001 13.977000 # 1HT SPC
355 119 2 -0.847600 33.374001 25.061001 33.248001 # 2OT SPC
356 119 1 0.423800 33.473000 25.997000 33.777000 # 1HT SPC
357 119 1 0.423800 34.021999 24.323000 33.696999 # 1HT SPC
358 120 2 -0.847600 34.174999 11.670000 23.740000 # 2OT SPC
359 120 1 0.423800 33.410000 11.486000 24.480000 # 1HT SPC
360 120 1 0.423800 33.858002 11.270000 22.788000 # 1HT SPC
361 121 2 -0.847600 33.981998 27.576000 13.656000 # 2OT SPC
362 121 1 0.423800 34.618000 26.976000 13.022000 # 1HT SPC
363 121 1 0.423800 34.118999 28.620001 13.417000 # 1HT SPC
364 122 2 -0.847600 29.746000 1.669000 19.858999 # 2OT SPC
365 122 1 0.423800 30.097000 0.655000 19.979000 # 1HT SPC
366 122 1 0.423800 29.485001 2.078000 20.823000 # 1HT SPC
367 123 2 -0.847600 28.836000 28.573999 19.253000 # 2OT SPC
368 123 1 0.423800 29.655001 28.261999 18.622000 # 1HT SPC
369 123 1 0.423800 28.049999 27.834999 19.212999 # 1HT SPC
370 124 2 -0.847600 1.990000 25.341999 1.113000 # 2OT SPC
371 124 1 0.423800 1.375000 25.153999 0.245000 # 1HT SPC
372 124 1 0.423800 2.311000 24.402000 1.537000 # 1HT SPC
373 125 2 -0.847600 9.493000 10.297000 10.064000 # 2OT SPC
374 125 1 0.423800 9.215000 9.350000 10.503000 # 1HT SPC
375 125 1 0.423800 10.105000 10.123000 9.191000 # 1HT SPC
376 126 2 -0.847600 23.320000 30.819000 33.403999 # 2OT SPC
377 126 1 0.423800 22.469999 30.893000 34.066002 # 1HT SPC
378 126 1 0.423800 23.471001 29.787001 33.125999 # 1HT SPC
379 127 2 -0.847600 17.778999 3.159000 33.431000 # 2OT SPC
380 127 1 0.423800 18.250999 2.213000 33.207001 # 1HT SPC
381 127 1 0.423800 17.886999 3.824000 32.587002 # 1HT SPC
382 128 2 -0.847600 3.622000 32.685001 35.186001 # 2OT SPC
383 128 1 0.423800 3.488000 32.216999 34.222000 # 1HT SPC
384 128 1 0.423800 4.267000 33.544998 35.083000 # 1HT SPC
385 129 2 -0.847600 11.312000 19.641001 19.593000 # 2OT SPC
386 129 1 0.423800 10.464000 19.472000 18.945000 # 1HT SPC
387 129 1 0.423800 11.125000 20.504000 20.212999 # 1HT SPC
388 130 2 -0.847600 19.454000 21.386999 6.825000 # 2OT SPC
389 130 1 0.423800 18.662001 21.410999 7.560000 # 1HT SPC
390 130 1 0.423800 20.388000 21.660000 7.293000 # 1HT SPC
391 131 2 -0.847600 0.177000 27.420000 31.007000 # 2OT SPC
392 131 1 0.423800 0.004000 26.402000 31.323999 # 1HT SPC
393 131 1 0.423800 0.006000 28.090000 31.836000 # 1HT SPC
394 132 2 -0.847600 25.356001 8.102000 35.075001 # 2OT SPC
395 132 1 0.423800 26.233000 8.673000 34.810001 # 1HT SPC
396 132 1 0.423800 24.663000 8.100000 34.247002 # 1HT SPC
397 133 2 -0.847600 9.681000 34.452000 31.914000 # 2OT SPC
398 133 1 0.423800 10.200000 34.962002 32.712002 # 1HT SPC
399 133 1 0.423800 9.062000 33.671001 32.328999 # 1HT SPC
400 134 2 -0.847600 13.107000 2.258000 3.381000 # 2OT SPC
401 134 1 0.423800 13.636000 1.316000 3.369000 # 1HT SPC
402 134 1 0.423800 12.051000 2.079000 3.243000 # 1HT SPC
403 135 2 -0.847600 2.659000 6.137000 6.549000 # 2OT SPC
404 135 1 0.423800 1.762000 6.396000 6.006000 # 1HT SPC
405 135 1 0.423800 3.500000 6.129000 5.872000 # 1HT SPC
406 136 2 -0.847600 34.287998 14.668000 29.350000 # 2OT SPC
407 136 1 0.423800 33.730999 14.196000 28.554001 # 1HT SPC
408 136 1 0.423800 34.485001 15.697000 29.091000 # 1HT SPC
409 137 2 -0.847600 20.111000 27.181999 22.954000 # 2OT SPC
410 137 1 0.423800 19.521999 26.625000 23.667000 # 1HT SPC
411 137 1 0.423800 20.028000 28.238001 23.165001 # 1HT SPC
412 138 2 -0.847600 12.134000 0.037000 2.390000 # 2OT SPC
413 138 1 0.423800 11.742000 0.125000 1.388000 # 1HT SPC
414 138 1 0.423800 11.318000 0.008000 3.096000 # 1HT SPC
415 139 2 -0.847600 3.089000 3.593000 6.696000 # 2OT SPC
416 139 1 0.423800 2.448000 2.935000 6.128000 # 1HT SPC
417 139 1 0.423800 4.095000 3.540000 6.308000 # 1HT SPC
418 140 2 -0.847600 31.059999 19.886000 9.022000 # 2OT SPC
419 140 1 0.423800 30.229000 20.162001 9.655000 # 1HT SPC
420 140 1 0.423800 31.091000 18.812000 8.917000 # 1HT SPC
421 141 2 -0.847600 4.168000 22.087999 17.986000 # 2OT SPC
422 141 1 0.423800 5.237000 22.233000 17.926001 # 1HT SPC
423 141 1 0.423800 3.958000 21.186001 18.542000 # 1HT SPC
424 142 2 -0.847600 17.917000 9.921000 27.525999 # 2OT SPC
425 142 1 0.423800 18.719999 10.115000 26.830000 # 1HT SPC
426 142 1 0.423800 18.285999 9.318000 28.341999 # 1HT SPC
427 143 2 -0.847600 31.278000 12.297000 26.163000 # 2OT SPC
428 143 1 0.423800 32.144001 12.247000 26.806999 # 1HT SPC
429 143 1 0.423800 30.486000 11.691000 26.577000 # 1HT SPC
430 144 2 -0.847600 18.723000 25.471001 31.737000 # 2OT SPC
431 144 1 0.423800 19.490999 24.783001 32.056000 # 1HT SPC
432 144 1 0.423800 18.650000 25.455000 30.660000 # 1HT SPC
433 145 2 -0.847600 13.698000 25.632000 25.198999 # 2OT SPC
434 145 1 0.423800 13.060000 26.325001 24.670000 # 1HT SPC
435 145 1 0.423800 14.566000 25.410999 24.597000 # 1HT SPC
436 146 2 -0.847600 10.212000 13.716000 12.596000 # 2OT SPC
437 146 1 0.423800 10.489000 12.792000 13.081000 # 1HT SPC
438 146 1 0.423800 10.233000 14.521000 13.316000 # 1HT SPC
439 147 2 -0.847600 2.748000 34.904999 7.209000 # 2OT SPC
440 147 1 0.423800 3.348000 35.527000 7.858000 # 1HT SPC
441 147 1 0.423800 2.218000 35.527000 6.504000 # 1HT SPC
442 148 2 -0.847600 14.513000 28.294001 25.507000 # 2OT SPC
443 148 1 0.423800 13.776000 27.806999 26.129000 # 1HT SPC
444 148 1 0.423800 15.340000 28.621000 26.118999 # 1HT SPC
445 149 2 -0.847600 26.781000 35.487000 24.263000 # 2OT SPC
446 149 1 0.423800 27.127001 35.457001 23.240999 # 1HT SPC
447 149 1 0.423800 27.024000 34.556000 24.754000 # 1HT SPC
448 150 2 -0.847600 13.027000 31.795000 33.748001 # 2OT SPC
449 150 1 0.423800 14.012000 31.627001 34.159000 # 1HT SPC
450 150 1 0.423800 12.331000 31.985001 34.550999 # 1HT SPC
451 151 2 -0.847600 11.668000 29.719000 20.226000 # 2OT SPC
452 151 1 0.423800 12.149000 30.157000 21.089001 # 1HT SPC
453 151 1 0.423800 11.416000 30.495001 19.520000 # 1HT SPC
454 152 2 -0.847600 6.570000 16.523001 31.934999 # 2OT SPC
455 152 1 0.423800 6.585000 15.476000 31.672001 # 1HT SPC
456 152 1 0.423800 7.556000 16.830000 32.250000 # 1HT SPC
457 153 2 -0.847600 28.645000 13.310000 23.339001 # 2OT SPC
458 153 1 0.423800 28.533001 12.376000 23.872000 # 1HT SPC
459 153 1 0.423800 27.811001 13.956000 23.566999 # 1HT SPC
460 154 2 -0.847600 9.054000 24.110001 19.955000 # 2OT SPC
461 154 1 0.423800 8.707000 23.997999 18.938999 # 1HT SPC
462 154 1 0.423800 9.442000 23.166000 20.309000 # 1HT SPC
463 155 2 -0.847600 23.877001 21.219000 11.873000 # 2OT SPC
464 155 1 0.423800 24.084999 21.309000 10.817000 # 1HT SPC
465 155 1 0.423800 23.732000 22.201000 12.297000 # 1HT SPC
466 156 2 -0.847600 27.115000 28.000999 35.459999 # 2OT SPC
467 156 1 0.423800 27.580999 27.195999 34.910000 # 1HT SPC
468 156 1 0.423800 26.051001 27.827999 35.519001 # 1HT SPC
469 157 2 -0.847600 1.984000 4.545000 15.183000 # 2OT SPC
470 157 1 0.423800 1.985000 3.662000 14.562000 # 1HT SPC
471 157 1 0.423800 2.325000 4.289000 16.174999 # 1HT SPC
472 158 2 -0.847600 21.823000 15.797000 32.380001 # 2OT SPC
473 158 1 0.423800 21.077999 16.118999 33.092999 # 1HT SPC
474 158 1 0.423800 22.808001 15.957000 32.791000 # 1HT SPC
475 159 2 -0.847600 8.593000 3.376000 14.848000 # 2OT SPC
476 159 1 0.423800 8.998000 3.425000 13.848000 # 1HT SPC
477 159 1 0.423800 7.898000 4.188000 14.996000 # 1HT SPC
478 160 2 -0.847600 14.898000 16.539000 18.195999 # 2OT SPC
479 160 1 0.423800 15.825000 16.652000 17.653000 # 1HT SPC
480 160 1 0.423800 14.478000 15.565000 17.990999 # 1HT SPC
481 161 2 -0.847600 34.667999 0.332000 25.094000 # 2OT SPC
482 161 1 0.423800 33.676998 0.001000 25.367001 # 1HT SPC
483 161 1 0.423800 35.132999 0.814000 25.941999 # 1HT SPC
484 162 2 -0.847600 34.217999 2.557000 33.667999 # 2OT SPC
485 162 1 0.423800 34.388000 1.825000 32.893002 # 1HT SPC
486 162 1 0.423800 34.081001 2.055000 34.613998 # 1HT SPC
487 163 2 -0.847600 26.427999 1.120000 3.471000 # 2OT SPC
488 163 1 0.423800 26.650999 1.972000 2.846000 # 1HT SPC
489 163 1 0.423800 26.993000 1.189000 4.388000 # 1HT SPC
490 164 2 -0.847600 20.077000 29.660000 1.941000 # 2OT SPC
491 164 1 0.423800 18.997000 29.698999 1.941000 # 1HT SPC
492 164 1 0.423800 20.430000 29.445000 0.944000 # 1HT SPC
493 165 2 -0.847600 34.898998 0.791000 28.139000 # 2OT SPC
494 165 1 0.423800 35.547001 -0.045000 27.923000 # 1HT SPC
495 165 1 0.423800 35.473000 1.705000 28.125000 # 1HT SPC
496 166 2 -0.847600 1.025000 25.600000 22.664000 # 2OT SPC
497 166 1 0.423800 0.146000 26.173000 22.922001 # 1HT SPC
498 166 1 0.423800 1.727000 25.629999 23.483999 # 1HT SPC
499 167 2 -0.847600 4.308000 2.391000 8.416000 # 2OT SPC
500 167 1 0.423800 4.808000 1.636000 9.005000 # 1HT SPC
501 167 1 0.423800 3.458000 2.769000 8.963000 # 1HT SPC
502 168 2 -0.847600 21.371000 9.640000 25.639000 # 2OT SPC
503 168 1 0.423800 22.364000 9.291000 25.396999 # 1HT SPC
504 168 1 0.423800 20.933001 10.109000 24.771000 # 1HT SPC
505 169 2 -0.847600 19.171000 13.118000 5.671000 # 2OT SPC
506 169 1 0.423800 19.855000 12.304000 5.485000 # 1HT SPC
507 169 1 0.423800 18.333000 12.760000 6.251000 # 1HT SPC
508 170 2 -0.847600 20.421000 24.556999 13.090000 # 2OT SPC
509 170 1 0.423800 19.679001 25.106001 13.652000 # 1HT SPC
510 170 1 0.423800 20.926001 23.862000 13.745000 # 1HT SPC
511 171 2 -0.847600 3.622000 8.409000 33.105999 # 2OT SPC