LAMMPS data file. CGCMM style. atom_style full generated by VMD/TopoTools v1.7 on Sat Jan 28 17:31:38 IST 2023
 4500 atoms
 3000 bonds
 1500 angles
 0 dihedrals
 0 impropers
 2 atom types
 1 bond types
 1 angle types
 0 dihedral types
 0 improper types
  -0.0420 37.5450  xlo xhi
  -0.0240 37.5400  ylo yhi
  -0.0210 37.5750  zlo zhi

# Pair Coeffs
#
# 1  1HT
# 2  2OT

# Bond Coeffs
#
# 1  1HT-2OT

# Angle Coeffs
#
# 1  1HT-2OT-1HT

 Masses

 1 1.007940 # 1HT
 2 15.999400 # 2OT

 Atoms # full

1 1 2 -0.847600 29.333000 15.837000 8.320000 # 2OT SPC
2 1 1 0.423800 28.620001 15.096000 7.989000 # 1HT SPC
3 1 1 0.423800 28.948000 16.825001 8.113000 # 1HT SPC
4 2 2 -0.847600 11.517000 18.707001 15.282000 # 2OT SPC
5 2 1 0.423800 11.374000 18.006001 14.474000 # 1HT SPC
6 2 1 0.423800 12.574000 18.858000 15.445000 # 1HT SPC
7 3 2 -0.847600 19.906000 -0.000000 16.103001 # 2OT SPC
8 3 1 0.423800 19.184000 0.331000 15.372000 # 1HT SPC
9 3 1 0.423800 20.396999 0.857000 16.539000 # 1HT SPC
10 4 2 -0.847600 28.886000 6.344000 16.785000 # 2OT SPC
11 4 1 0.423800 28.459999 6.255000 17.774000 # 1HT SPC
12 4 1 0.423800 29.809000 6.901000 16.839001 # 1HT SPC
13 5 2 -0.847600 26.834000 11.317000 36.328999 # 2OT SPC
14 5 1 0.423800 27.257000 11.567000 37.290001 # 1HT SPC
15 5 1 0.423800 27.611000 11.329000 35.578999 # 1HT SPC
16 6 2 -0.847600 1.044000 36.071999 34.550999 # 2OT SPC
17 6 1 0.423800 -0.000000 36.157001 34.812000 # 1HT SPC
18 6 1 0.423800 1.651000 36.368000 35.393002 # 1HT SPC
19 7 2 -0.847600 11.252000 34.764999 1.849000 # 2OT SPC
20 7 1 0.423800 11.954000 35.014999 2.632000 # 1HT SPC
21 7 1 0.423800 10.337000 34.398998 2.290000 # 1HT SPC
22 8 2 -0.847600 18.129999 35.195999 11.487000 # 2OT SPC
23 8 1 0.423800 17.207001 34.933998 10.991000 # 1HT SPC
24 8 1 0.423800 18.040001 34.995998 12.544000 # 1HT SPC
25 9 2 -0.847600 36.473000 26.030001 27.458000 # 2OT SPC
26 9 1 0.423800 35.928001 25.677000 26.594999 # 1HT SPC
27 9 1 0.423800 35.891998 25.849001 28.350000 # 1HT SPC
28 10 2 -0.847600 22.143000 19.104000 36.909000 # 2OT SPC
29 10 1 0.423800 21.708000 19.007999 35.925999 # 1HT SPC
30 10 1 0.423800 21.528999 19.754000 37.514000 # 1HT SPC
31 11 2 -0.847600 35.028999 34.414001 34.167999 # 2OT SPC
32 11 1 0.423800 34.285000 35.195999 34.202000 # 1HT SPC
33 11 1 0.423800 35.485001 34.393002 33.188999 # 1HT SPC
34 12 2 -0.847600 3.315000 14.618000 16.872000 # 2OT SPC
35 12 1 0.423800 4.334000 14.691000 16.521000 # 1HT SPC
36 12 1 0.423800 2.638000 14.732000 16.039000 # 1HT SPC
37 13 2 -0.847600 11.443000 17.150999 1.200000 # 2OT SPC
38 13 1 0.423800 11.393000 16.344999 0.483000 # 1HT SPC
39 13 1 0.423800 12.427000 17.177999 1.644000 # 1HT SPC
40 14 2 -0.847600 14.254000 26.511999 4.584000 # 2OT SPC
41 14 1 0.423800 15.112000 26.955999 5.068000 # 1HT SPC
42 14 1 0.423800 13.801000 25.789000 5.246000 # 1HT SPC
43 15 2 -0.847600 33.765999 23.545000 13.486000 # 2OT SPC
44 15 1 0.423800 34.354000 23.330999 12.606000 # 1HT SPC
45 15 1 0.423800 32.987000 24.249001 13.237000 # 1HT SPC
46 16 2 -0.847600 12.171000 27.146000 37.209000 # 2OT SPC
47 16 1 0.423800 11.119000 27.309999 37.030998 # 1HT SPC
48 16 1 0.423800 12.635000 26.770000 36.308998 # 1HT SPC
49 17 2 -0.847600 8.330000 5.778000 29.554001 # 2OT SPC
50 17 1 0.423800 8.120000 4.991000 28.844999 # 1HT SPC
51 17 1 0.423800 7.960000 5.494000 30.527000 # 1HT SPC
52 18 2 -0.847600 24.510000 21.107000 0.463000 # 2OT SPC
53 18 1 0.423800 24.528000 22.090000 0.016000 # 1HT SPC
54 18 1 0.423800 25.473000 20.893999 0.903000 # 1HT SPC
55 19 2 -0.847600 25.444000 8.766000 16.757999 # 2OT SPC
56 19 1 0.423800 24.389999 8.910000 16.945000 # 1HT SPC
57 19 1 0.423800 25.601999 8.592000 15.704000 # 1HT SPC
58 20 2 -0.847600 11.306000 8.314000 28.034000 # 2OT SPC
59 20 1 0.423800 12.352000 8.446000 28.270000 # 1HT SPC
60 20 1 0.423800 10.789000 7.922000 28.896999 # 1HT SPC
61 21 2 -0.847600 34.655998 21.575001 14.555000 # 2OT SPC
62 21 1 0.423800 35.297001 21.806000 15.393000 # 1HT SPC
63 21 1 0.423800 34.790001 20.542000 14.273000 # 1HT SPC
64 22 2 -0.847600 33.715000 32.500999 34.077999 # 2OT SPC
65 22 1 0.423800 34.542000 32.410999 33.389000 # 1HT SPC
66 22 1 0.423800 32.801998 32.660000 33.525002 # 1HT SPC
67 23 2 -0.847600 20.636999 18.784000 28.292999 # 2OT SPC
68 23 1 0.423800 21.596001 18.288000 28.337999 # 1HT SPC
69 23 1 0.423800 19.955999 18.313999 28.985001 # 1HT SPC
70 24 2 -0.847600 2.247000 22.735001 24.686001 # 2OT SPC
71 24 1 0.423800 2.034000 22.190001 23.778000 # 1HT SPC
72 24 1 0.423800 1.502000 22.500999 25.430000 # 1HT SPC
73 25 2 -0.847600 25.237000 3.085000 3.876000 # 2OT SPC
74 25 1 0.423800 26.034000 3.795000 4.040000 # 1HT SPC
75 25 1 0.423800 24.311001 3.489000 4.256000 # 1HT SPC
76 26 2 -0.847600 3.057000 0.738000 5.627000 # 2OT SPC
77 26 1 0.423800 2.747000 0.127000 6.463000 # 1HT SPC
78 26 1 0.423800 2.260000 0.783000 4.900000 # 1HT SPC
79 27 2 -0.847600 22.400999 26.152000 18.040001 # 2OT SPC
80 27 1 0.423800 22.198999 26.506001 17.040001 # 1HT SPC
81 27 1 0.423800 22.016001 26.860001 18.757999 # 1HT SPC
82 28 2 -0.847600 0.650000 33.291000 32.493000 # 2OT SPC
83 28 1 0.423800 -0.042000 33.965000 32.976002 # 1HT SPC
84 28 1 0.423800 1.605000 33.780998 32.373001 # 1HT SPC
85 29 2 -0.847600 37.474998 32.276001 17.128000 # 2OT SPC
86 29 1 0.423800 37.513000 31.198000 17.193001 # 1HT SPC
87 29 1 0.423800 36.752998 32.653999 17.837000 # 1HT SPC
88 30 2 -0.847600 23.110001 14.934000 30.773001 # 2OT SPC
89 30 1 0.423800 23.906000 14.793000 31.490000 # 1HT SPC
90 30 1 0.423800 23.532000 15.182000 29.809999 # 1HT SPC
91 31 2 -0.847600 8.647000 34.173000 13.092000 # 2OT SPC
92 31 1 0.423800 9.180000 33.304001 13.450000 # 1HT SPC
93 31 1 0.423800 8.884000 34.338001 12.052000 # 1HT SPC
94 32 2 -0.847600 14.948000 34.603001 -0.004000 # 2OT SPC
95 32 1 0.423800 14.345000 35.493999 0.103000 # 1HT SPC
96 32 1 0.423800 15.317000 34.300999 0.965000 # 1HT SPC
97 33 2 -0.847600 1.369000 2.934000 18.076000 # 2OT SPC
98 33 1 0.423800 0.468000 3.481000 18.312000 # 1HT SPC
99 33 1 0.423800 1.967000 2.823000 18.966999 # 1HT SPC
100 34 2 -0.847600 9.590000 1.992000 9.342000 # 2OT SPC
101 34 1 0.423800 9.747000 2.311000 8.322000 # 1HT SPC
102 34 1 0.423800 9.377000 2.852000 9.959000 # 1HT SPC
103 35 2 -0.847600 17.871000 21.802999 21.832001 # 2OT SPC
104 35 1 0.423800 17.639999 20.792000 21.532000 # 1HT SPC
105 35 1 0.423800 18.341000 22.323999 21.011000 # 1HT SPC
106 36 2 -0.847600 11.362000 12.155000 32.941002 # 2OT SPC
107 36 1 0.423800 12.368000 12.481000 32.722000 # 1HT SPC
108 36 1 0.423800 10.660000 12.904000 32.605999 # 1HT SPC
109 37 2 -0.847600 0.384000 35.228001 29.198999 # 2OT SPC
110 37 1 0.423800 0.000000 34.291000 28.823000 # 1HT SPC
111 37 1 0.423800 0.355000 35.222000 30.278000 # 1HT SPC
112 38 2 -0.847600 28.837999 4.092000 30.197001 # 2OT SPC
113 38 1 0.423800 28.535999 5.128000 30.171000 # 1HT SPC
114 38 1 0.423800 29.318001 3.833000 29.264999 # 1HT SPC
115 39 2 -0.847600 14.185000 0.626000 0.911000 # 2OT SPC
116 39 1 0.423800 14.667000 0.066000 1.699000 # 1HT SPC
117 39 1 0.423800 14.238000 1.681000 1.135000 # 1HT SPC
118 40 2 -0.847600 22.783001 17.382999 8.088000 # 2OT SPC
119 40 1 0.423800 21.747000 17.658001 7.958000 # 1HT SPC
120 40 1 0.423800 22.966000 16.431999 7.612000 # 1HT SPC
121 41 2 -0.847600 21.504000 22.405001 15.121000 # 2OT SPC
122 41 1 0.423800 21.885000 23.413000 15.204000 # 1HT SPC
123 41 1 0.423800 21.070999 22.263000 14.142000 # 1HT SPC
124 42 2 -0.847600 0.238000 4.265000 33.041000 # 2OT SPC
125 42 1 0.423800 0.000000 5.308000 32.893002 # 1HT SPC
126 42 1 0.423800 0.372000 4.072000 34.094002 # 1HT SPC
127 43 2 -0.847600 22.115000 31.170000 17.629000 # 2OT SPC
128 43 1 0.423800 22.426001 30.525000 18.437000 # 1HT SPC
129 43 1 0.423800 21.094999 31.483000 17.790001 # 1HT SPC
130 44 2 -0.847600 7.976000 34.002998 9.649000 # 2OT SPC
131 44 1 0.423800 8.340000 35.019001 9.610000 # 1HT SPC
132 44 1 0.423800 7.364000 33.873001 10.529000 # 1HT SPC
133 45 2 -0.847600 16.848000 17.516001 1.198000 # 2OT SPC
134 45 1 0.423800 17.709000 16.889000 1.021000 # 1HT SPC
135 45 1 0.423800 16.355000 17.724001 0.259000 # 1HT SPC
136 46 2 -0.847600 9.683000 9.570000 5.864000 # 2OT SPC
137 46 1 0.423800 9.845000 8.550000 6.183000 # 1HT SPC
138 46 1 0.423800 9.806000 9.636000 4.793000 # 1HT SPC
139 47 2 -0.847600 33.626999 5.443000 29.063999 # 2OT SPC
140 47 1 0.423800 34.146000 6.227000 29.596001 # 1HT SPC
141 47 1 0.423800 32.687000 5.822000 28.693001 # 1HT SPC
142 48 2 -0.847600 1.784000 8.420000 32.426998 # 2OT SPC
143 48 1 0.423800 0.998000 7.768000 32.778999 # 1HT SPC
144 48 1 0.423800 1.635000 8.631000 31.378000 # 1HT SPC
145 49 2 -0.847600 8.302000 18.945999 12.822000 # 2OT SPC
146 49 1 0.423800 7.414000 19.000999 13.435000 # 1HT SPC
147 49 1 0.423800 8.725000 19.934000 12.713000 # 1HT SPC
148 50 2 -0.847600 24.674000 5.109000 26.099001 # 2OT SPC
149 50 1 0.423800 24.127001 4.202000 26.316000 # 1HT SPC
150 50 1 0.423800 24.715000 5.725000 26.985001 # 1HT SPC
151 51 2 -0.847600 34.007000 24.039000 16.726999 # 2OT SPC
152 51 1 0.423800 33.898998 22.981001 16.915001 # 1HT SPC
153 51 1 0.423800 34.615002 24.188000 15.847000 # 1HT SPC
154 52 2 -0.847600 7.773000 3.721000 37.514000 # 2OT SPC
155 52 1 0.423800 8.416000 3.072000 36.938999 # 1HT SPC
156 52 1 0.423800 7.313000 4.444000 36.858002 # 1HT SPC
157 53 2 -0.847600 22.537001 16.921000 11.331000 # 2OT SPC
158 53 1 0.423800 22.055000 16.221001 10.664000 # 1HT SPC
159 53 1 0.423800 22.847000 16.407000 12.229000 # 1HT SPC
160 54 2 -0.847600 0.889000 32.384998 3.582000 # 2OT SPC
161 54 1 0.423800 1.322000 31.395000 3.601000 # 1HT SPC
162 54 1 0.423800 0.349000 32.522999 2.657000 # 1HT SPC
163 55 2 -0.847600 14.229000 16.513000 3.367000 # 2OT SPC
164 55 1 0.423800 14.376000 15.468000 3.595000 # 1HT SPC
165 55 1 0.423800 15.047000 16.867001 2.758000 # 1HT SPC
166 56 2 -0.847600 34.077000 28.996000 4.107000 # 2OT SPC
167 56 1 0.423800 34.938000 29.504000 3.699000 # 1HT SPC
168 56 1 0.423800 33.668999 29.575001 4.922000 # 1HT SPC
169 57 2 -0.847600 20.326000 27.823999 21.898001 # 2OT SPC
170 57 1 0.423800 20.920000 27.312000 22.641001 # 1HT SPC
171 57 1 0.423800 19.441999 28.233000 22.364000 # 1HT SPC
172 58 2 -0.847600 11.911000 9.955000 13.974000 # 2OT SPC
173 58 1 0.423800 12.577000 9.161000 14.276000 # 1HT SPC
174 58 1 0.423800 11.895000 10.721000 14.736000 # 1HT SPC
175 59 2 -0.847600 30.013000 29.964001 6.559000 # 2OT SPC
176 59 1 0.423800 29.197001 30.645000 6.367000 # 1HT SPC
177 59 1 0.423800 29.618000 29.007000 6.868000 # 1HT SPC
178 60 2 -0.847600 31.056000 20.641001 18.173000 # 2OT SPC
179 60 1 0.423800 31.551001 19.841999 17.639999 # 1HT SPC
180 60 1 0.423800 30.224001 21.002001 17.587999 # 1HT SPC
181 61 2 -0.847600 23.540001 3.241000 11.247000 # 2OT SPC
182 61 1 0.423800 24.429001 2.683000 10.992000 # 1HT SPC
183 61 1 0.423800 23.240000 3.846000 10.405000 # 1HT SPC
184 62 2 -0.847600 37.536999 1.381000 20.541000 # 2OT SPC
185 62 1 0.423800 37.124001 0.405000 20.332001 # 1HT SPC
186 62 1 0.423800 37.393002 1.617000 21.584000 # 1HT SPC
187 63 2 -0.847600 28.297001 15.984000 0.921000 # 2OT SPC
188 63 1 0.423800 27.583000 15.199000 1.121000 # 1HT SPC
189 63 1 0.423800 28.440001 16.575001 1.813000 # 1HT SPC
190 64 2 -0.847600 30.854000 8.321000 15.469000 # 2OT SPC
191 64 1 0.423800 31.771000 7.770000 15.319000 # 1HT SPC
192 64 1 0.423800 30.584999 8.828000 14.555000 # 1HT SPC
193 65 2 -0.847600 30.011000 25.419001 31.311001 # 2OT SPC
194 65 1 0.423800 30.874001 25.049999 31.844999 # 1HT SPC
195 65 1 0.423800 29.207001 24.702000 31.385000 # 1HT SPC
196 66 2 -0.847600 17.226999 36.448002 37.446999 # 2OT SPC
197 66 1 0.423800 18.275999 36.200001 37.519001 # 1HT SPC
198 66 1 0.423800 17.111000 37.521000 37.421001 # 1HT SPC
199 67 2 -0.847600 20.781000 32.209999 36.418999 # 2OT SPC
200 67 1 0.423800 19.702000 32.176998 36.402000 # 1HT SPC
201 67 1 0.423800 21.165001 31.264000 36.769001 # 1HT SPC
202 68 2 -0.847600 34.154999 33.978001 21.040001 # 2OT SPC
203 68 1 0.423800 34.509998 32.965000 20.915001 # 1HT SPC
204 68 1 0.423800 34.195999 34.493999 20.093000 # 1HT SPC
205 69 2 -0.847600 26.944000 19.312000 9.049000 # 2OT SPC
206 69 1 0.423800 27.334999 20.319000 9.060000 # 1HT SPC
207 69 1 0.423800 27.638000 18.662001 8.536000 # 1HT SPC
208 70 2 -0.847600 0.098000 33.584000 19.448999 # 2OT SPC
209 70 1 0.423800 0.656000 34.486000 19.653000 # 1HT SPC
210 70 1 0.423800 0.565000 33.047001 18.636999 # 1HT SPC
211 71 2 -0.847600 4.661000 36.437000 2.009000 # 2OT SPC
212 71 1 0.423800 4.300000 36.782001 2.968000 # 1HT SPC
213 71 1 0.423800 5.679000 36.094002 2.110000 # 1HT SPC
214 72 2 -0.847600 6.100000 1.127000 7.611000 # 2OT SPC
215 72 1 0.423800 5.709000 0.321000 8.214000 # 1HT SPC
216 72 1 0.423800 7.144000 0.947000 7.402000 # 1HT SPC
217 73 2 -0.847600 31.816000 10.041000 7.857000 # 2OT SPC
218 73 1 0.423800 31.014000 9.343000 7.668000 # 1HT SPC
219 73 1 0.423800 32.382000 9.714000 8.717000 # 1HT SPC
220 74 2 -0.847600 14.226000 12.701000 16.122999 # 2OT SPC
221 74 1 0.423800 14.149000 13.526000 15.430000 # 1HT SPC
222 74 1 0.423800 14.100000 11.770000 15.591000 # 1HT SPC
223 75 2 -0.847600 28.500999 13.282000 4.471000 # 2OT SPC
224 75 1 0.423800 28.042999 12.354000 4.162000 # 1HT SPC
225 75 1 0.423800 29.042999 13.710000 3.642000 # 1HT SPC
226 76 2 -0.847600 22.886999 33.148998 8.902000 # 2OT SPC
227 76 1 0.423800 21.811001 33.069000 8.855000 # 1HT SPC
228 76 1 0.423800 23.283001 33.269001 7.905000 # 1HT SPC
229 77 2 -0.847600 11.169000 -0.007000 6.672000 # 2OT SPC
230 77 1 0.423800 12.074000 0.091000 6.090000 # 1HT SPC
231 77 1 0.423800 10.802000 0.974000 6.934000 # 1HT SPC
232 78 2 -0.847600 10.029000 27.025999 35.140999 # 2OT SPC
233 78 1 0.423800 9.027000 27.429001 35.166000 # 1HT SPC
234 78 1 0.423800 10.088000 26.254999 34.387001 # 1HT SPC
235 79 2 -0.847600 28.834000 27.190001 1.212000 # 2OT SPC
236 79 1 0.423800 29.806999 26.782000 0.981000 # 1HT SPC
237 79 1 0.423800 28.554001 26.909000 2.216000 # 1HT SPC
238 80 2 -0.847600 22.757999 36.307999 1.153000 # 2OT SPC
239 80 1 0.423800 21.886999 36.676998 1.673000 # 1HT SPC
240 80 1 0.423800 23.351999 35.708000 1.826000 # 1HT SPC
241 81 2 -0.847600 2.141000 32.546001 27.771999 # 2OT SPC
242 81 1 0.423800 2.203000 31.610001 28.306000 # 1HT SPC
243 81 1 0.423800 2.390000 32.386002 26.733999 # 1HT SPC
244 82 2 -0.847600 28.680000 8.942000 11.797000 # 2OT SPC
245 82 1 0.423800 28.271999 9.504000 10.969000 # 1HT SPC
246 82 1 0.423800 29.622999 9.373000 12.095000 # 1HT SPC
247 83 2 -0.847600 35.374001 12.866000 7.303000 # 2OT SPC
248 83 1 0.423800 34.443001 13.389000 7.468000 # 1HT SPC
249 83 1 0.423800 36.021000 13.006000 8.156000 # 1HT SPC
250 84 2 -0.847600 32.655998 22.989000 30.096001 # 2OT SPC
251 84 1 0.423800 31.892000 22.243000 30.257999 # 1HT SPC
252 84 1 0.423800 32.521000 23.801001 30.795000 # 1HT SPC
253 85 2 -0.847600 3.556000 32.530998 5.714000 # 2OT SPC
254 85 1 0.423800 2.506000 32.681000 5.511000 # 1HT SPC
255 85 1 0.423800 3.905000 31.657000 5.184000 # 1HT SPC
256 86 2 -0.847600 29.346001 2.963000 19.729000 # 2OT SPC
257 86 1 0.423800 28.600000 3.417000 19.094000 # 1HT SPC
258 86 1 0.423800 28.879999 2.618000 20.639999 # 1HT SPC
259 87 2 -0.847600 17.478001 24.716999 18.853001 # 2OT SPC
260 87 1 0.423800 17.561001 24.947001 19.905001 # 1HT SPC
261 87 1 0.423800 16.507000 25.023001 18.493000 # 1HT SPC
262 88 2 -0.847600 15.826000 14.935000 37.412998 # 2OT SPC
263 88 1 0.423800 15.731000 13.860000 37.462002 # 1HT SPC
264 88 1 0.423800 14.851000 15.388000 37.513000 # 1HT SPC
265 89 2 -0.847600 7.783000 28.184999 17.980000 # 2OT SPC
266 89 1 0.423800 7.160000 28.781000 18.629999 # 1HT SPC
267 89 1 0.423800 8.689000 28.726000 17.753000 # 1HT SPC
268 90 2 -0.847600 31.677999 26.972000 21.011999 # 2OT SPC
269 90 1 0.423800 32.203999 27.875999 20.742001 # 1HT SPC
270 90 1 0.423800 31.059999 26.655001 20.184999 # 1HT SPC
271 91 2 -0.847600 19.066000 31.746000 31.556000 # 2OT SPC
272 91 1 0.423800 18.493000 31.030001 32.125999 # 1HT SPC
273 91 1 0.423800 18.441999 32.180000 30.790001 # 1HT SPC
274 92 2 -0.847600 25.546000 18.320000 3.800000 # 2OT SPC
275 92 1 0.423800 25.570999 18.565001 4.851000 # 1HT SPC
276 92 1 0.423800 25.362000 19.216000 3.226000 # 1HT SPC
277 93 2 -0.847600 18.868999 8.825000 20.540001 # 2OT SPC
278 93 1 0.423800 17.997999 9.100000 21.115000 # 1HT SPC
279 93 1 0.423800 18.583000 8.138000 19.757999 # 1HT SPC
280 94 2 -0.847600 11.865000 0.586000 10.759000 # 2OT SPC
281 94 1 0.423800 11.467000 1.584000 10.650000 # 1HT SPC
282 94 1 0.423800 11.708000 0.034000 9.844000 # 1HT SPC
283 95 2 -0.847600 6.219000 17.177000 21.761999 # 2OT SPC
284 95 1 0.423800 5.156000 17.183001 21.570000 # 1HT SPC
285 95 1 0.423800 6.454000 17.915001 22.514000 # 1HT SPC
286 96 2 -0.847600 5.600000 15.013000 21.746000 # 2OT SPC
287 96 1 0.423800 5.549000 15.337000 22.775999 # 1HT SPC
288 96 1 0.423800 4.803000 14.312000 21.549000 # 1HT SPC
289 97 2 -0.847600 24.931999 19.306000 12.277000 # 2OT SPC
290 97 1 0.423800 24.497999 18.556999 12.923000 # 1HT SPC
291 97 1 0.423800 25.858999 19.657000 12.705000 # 1HT SPC
292 98 2 -0.847600 4.403000 36.997002 28.660000 # 2OT SPC
293 98 1 0.423800 5.326000 37.515999 28.872999 # 1HT SPC
294 98 1 0.423800 4.097000 36.432999 29.528000 # 1HT SPC
295 99 2 -0.847600 24.190001 34.851002 21.426001 # 2OT SPC
296 99 1 0.423800 25.221001 34.620998 21.201000 # 1HT SPC
297 99 1 0.423800 23.916000 35.778999 20.947001 # 1HT SPC
298 100 2 -0.847600 1.797000 32.949001 30.326000 # 2OT SPC
299 100 1 0.423800 0.965000 32.348999 29.985001 # 1HT SPC
300 100 1 0.423800 1.996000 33.730000 29.608000 # 1HT SPC
301 101 2 -0.847600 11.287000 9.476000 30.724001 # 2OT SPC
302 101 1 0.423800 11.656000 10.159000 31.474001 # 1HT SPC
303 101 1 0.423800 11.365000 8.463000 31.090000 # 1HT SPC
304 102 2 -0.847600 21.896000 35.896999 4.730000 # 2OT SPC
305 102 1 0.423800 22.855000 35.512001 4.416000 # 1HT SPC
306 102 1 0.423800 21.797001 36.924000 4.411000 # 1HT SPC
307 103 2 -0.847600 13.109000 14.705000 6.367000 # 2OT SPC
308 103 1 0.423800 14.100000 15.072000 6.147000 # 1HT SPC
309 103 1 0.423800 12.794000 15.074000 7.332000 # 1HT SPC
310 104 2 -0.847600 0.893000 13.668000 2.225000 # 2OT SPC
311 104 1 0.423800 0.022000 13.049000 2.063000 # 1HT SPC
312 104 1 0.423800 1.358000 13.890000 1.276000 # 1HT SPC
313 105 2 -0.847600 6.835000 9.968000 16.971001 # 2OT SPC
314 105 1 0.423800 6.908000 8.891000 17.007000 # 1HT SPC
315 105 1 0.423800 6.721000 10.287000 15.946000 # 1HT SPC
316 106 2 -0.847600 28.752001 1.326000 29.195000 # 2OT SPC
317 106 1 0.423800 28.819000 1.329000 28.115999 # 1HT SPC
318 106 1 0.423800 27.735001 1.117000 29.492001 # 1HT SPC
319 107 2 -0.847600 24.010000 6.568000 20.729000 # 2OT SPC
320 107 1 0.423800 24.209000 5.595000 21.155001 # 1HT SPC
321 107 1 0.423800 22.993999 6.858000 20.952000 # 1HT SPC
322 108 2 -0.847600 28.117001 28.398001 21.349001 # 2OT SPC
323 108 1 0.423800 27.313999 27.746000 21.659000 # 1HT SPC
324 108 1 0.423800 29.054001 27.865000 21.400000 # 1HT SPC
325 109 2 -0.847600 31.639000 7.991000 9.865000 # 2OT SPC
326 109 1 0.423800 30.896000 8.585000 10.377000 # 1HT SPC
327 109 1 0.423800 32.171001 7.385000 10.582000 # 1HT SPC
328 110 2 -0.847600 28.160000 27.295000 28.917999 # 2OT SPC
329 110 1 0.423800 27.433001 27.728001 28.246000 # 1HT SPC
330 110 1 0.423800 28.341000 26.268000 28.639000 # 1HT SPC
331 111 2 -0.847600 24.555000 24.264999 24.167000 # 2OT SPC
332 111 1 0.423800 24.375000 23.202999 24.077000 # 1HT SPC
333 111 1 0.423800 23.945999 24.795000 23.451000 # 1HT SPC
334 112 2 -0.847600 34.429001 32.542000 24.961000 # 2OT SPC
335 112 1 0.423800 34.500000 32.785000 26.011000 # 1HT SPC
336 112 1 0.423800 33.455002 32.825001 24.591000 # 1HT SPC
337 113 2 -0.847600 12.670000 27.761999 0.921000 # 2OT SPC
338 113 1 0.423800 13.408000 28.500999 1.197000 # 1HT SPC
339 113 1 0.423800 12.976000 27.271000 0.009000 # 1HT SPC
340 114 2 -0.847600 4.004000 14.627000 24.739000 # 2OT SPC
341 114 1 0.423800 3.890000 15.670000 24.995001 # 1HT SPC
342 114 1 0.423800 4.816000 14.203000 25.309999 # 1HT SPC
343 115 2 -0.847600 16.288000 25.672001 15.328000 # 2OT SPC
344 115 1 0.423800 16.475000 25.674999 16.392000 # 1HT SPC
345 115 1 0.423800 17.051001 26.249001 14.827000 # 1HT SPC
346 116 2 -0.847600 34.402000 35.162998 24.459999 # 2OT SPC
347 116 1 0.423800 35.254002 34.501999 24.396999 # 1HT SPC
348 116 1 0.423800 33.651001 34.849998 23.750000 # 1HT SPC
349 117 2 -0.847600 7.571000 23.545000 3.925000 # 2OT SPC
350 117 1 0.423800 7.749000 24.603001 3.798000 # 1HT SPC
351 117 1 0.423800 7.186000 23.132000 3.005000 # 1HT SPC
352 118 2 -0.847600 20.160000 32.272999 15.962000 # 2OT SPC
353 118 1 0.423800 19.396000 31.559999 15.689000 # 1HT SPC
354 118 1 0.423800 20.830999 32.418999 15.129000 # 1HT SPC
355 119 2 -0.847600 36.103001 16.134001 28.341000 # 2OT SPC
356 119 1 0.423800 37.077000 16.125999 27.872999 # 1HT SPC
357 119 1 0.423800 35.981998 17.046000 28.906000 # 1HT SPC
358 120 2 -0.847600 30.215000 9.056000 19.259001 # 2OT SPC
359 120 1 0.423800 30.266001 8.471000 20.166000 # 1HT SPC
360 120 1 0.423800 30.676001 8.508000 18.451000 # 1HT SPC
361 121 2 -0.847600 1.697000 14.724000 12.442000 # 2OT SPC
362 121 1 0.423800 0.940000 14.246000 13.046000 # 1HT SPC
363 121 1 0.423800 1.723000 14.263000 11.466000 # 1HT SPC
364 122 2 -0.847600 18.927999 23.896999 15.952000 # 2OT SPC
365 122 1 0.423800 19.457001 22.996000 15.678000 # 1HT SPC
366 122 1 0.423800 18.475000 24.330000 15.073000 # 1HT SPC
367 123 2 -0.847600 36.617001 26.315001 35.185001 # 2OT SPC
368 123 1 0.423800 36.136002 27.256001 35.410999 # 1HT SPC
369 123 1 0.423800 35.882000 25.612000 34.825001 # 1HT SPC
370 124 2 -0.847600 35.962002 12.330000 25.181999 # 2OT SPC
371 124 1 0.423800 36.380001 11.959000 26.107000 # 1HT SPC
372 124 1 0.423800 35.182999 13.044000 25.399000 # 1HT SPC
373 125 2 -0.847600 36.375999 28.683001 14.980000 # 2OT SPC
374 125 1 0.423800 35.467999 29.172001 14.658000 # 1HT SPC
375 125 1 0.423800 36.854000 28.216999 14.131000 # 1HT SPC
376 126 2 -0.847600 30.945999 2.038000 21.125000 # 2OT SPC
377 126 1 0.423800 31.922001 1.902000 21.566999 # 1HT SPC
378 126 1 0.423800 30.393999 1.111000 21.179001 # 1HT SPC
379 127 2 -0.847600 30.430000 29.485001 19.073000 # 2OT SPC
380 127 1 0.423800 31.016001 30.346001 19.360001 # 1HT SPC
381 127 1 0.423800 30.393000 28.785000 19.893999 # 1HT SPC
382 128 2 -0.847600 2.263000 26.509001 1.132000 # 2OT SPC
383 128 1 0.423800 1.592000 26.450001 1.977000 # 1HT SPC
384 128 1 0.423800 1.823000 26.000999 0.287000 # 1HT SPC
385 129 2 -0.847600 9.736000 10.132000 10.752000 # 2OT SPC
386 129 1 0.423800 10.602000 10.256000 10.119000 # 1HT SPC
387 129 1 0.423800 9.328000 11.101000 10.997000 # 1HT SPC
388 130 2 -0.847600 24.518000 32.341999 34.437000 # 2OT SPC
389 130 1 0.423800 24.830000 31.340000 34.182999 # 1HT SPC
390 130 1 0.423800 24.719999 32.528999 35.480999 # 1HT SPC
391 131 2 -0.847600 19.546000 3.997000 35.437000 # 2OT SPC
392 131 1 0.423800 20.556000 3.878000 35.071999 # 1HT SPC
393 131 1 0.423800 18.922001 3.216000 35.028000 # 1HT SPC
394 132 2 -0.847600 3.929000 34.911999 36.779999 # 2OT SPC
395 132 1 0.423800 3.272000 34.640999 35.966999 # 1HT SPC
396 132 1 0.423800 4.288000 34.018002 37.266998 # 1HT SPC
397 133 2 -0.847600 11.171000 21.742001 21.160999 # 2OT SPC
398 133 1 0.423800 11.707000 20.914000 20.722000 # 1HT SPC
399 133 1 0.423800 11.048000 22.521999 20.424999 # 1HT SPC
400 134 2 -0.847600 20.476000 22.780001 7.253000 # 2OT SPC
401 134 1 0.423800 19.764999 22.282000 7.896000 # 1HT SPC
402 134 1 0.423800 21.120001 22.046000 6.792000 # 1HT SPC
403 135 2 -0.847600 0.055000 28.885000 33.726002 # 2OT SPC
404 135 1 0.423800 -0.031000 27.840000 33.464001 # 1HT SPC
405 135 1 0.423800 0.471000 29.431999 32.893002 # 1HT SPC
406 136 2 -0.847600 26.665001 8.551000 36.863998 # 2OT SPC
407 136 1 0.423800 26.320000 8.133000 35.929001 # 1HT SPC
408 136 1 0.423800 27.473000 9.242000 36.673000 # 1HT SPC
409 137 2 -0.847600 10.114000 35.945000 33.713001 # 2OT SPC
410 137 1 0.423800 9.149000 35.548000 33.431000 # 1HT SPC
411 137 1 0.423800 9.994000 36.952999 34.081001 # 1HT SPC
412 138 2 -0.847600 13.199000 1.465000 3.625000 # 2OT SPC
413 138 1 0.423800 13.200000 2.427000 4.117000 # 1HT SPC
414 138 1 0.423800 13.709000 0.743000 4.245000 # 1HT SPC
415 139 2 -0.847600 2.609000 6.480000 5.991000 # 2OT SPC
416 139 1 0.423800 1.604000 6.248000 6.314000 # 1HT SPC
417 139 1 0.423800 3.154000 6.932000 6.806000 # 1HT SPC
418 140 2 -0.847600 35.717999 15.221000 30.881001 # 2OT SPC
419 140 1 0.423800 36.659000 15.704000 30.659000 # 1HT SPC
420 140 1 0.423800 34.974998 15.533000 30.163000 # 1HT SPC
421 141 2 -0.847600 21.846001 29.072001 24.438000 # 2OT SPC
422 141 1 0.423800 22.643999 28.868999 25.136000 # 1HT SPC
423 141 1 0.423800 20.895000 28.879000 24.912001 # 1HT SPC
424 142 2 -0.847600 3.676000 4.566000 6.678000 # 2OT SPC
425 142 1 0.423800 4.306000 3.777000 6.296000 # 1HT SPC
426 142 1 0.423800 2.640000 4.310000 6.516000 # 1HT SPC
427 143 2 -0.847600 32.389000 20.299000 10.449000 # 2OT SPC
428 143 1 0.423800 31.662001 20.996000 10.060000 # 1HT SPC
429 143 1 0.423800 33.132000 20.094000 9.693000 # 1HT SPC
430 144 2 -0.847600 5.600000 23.458000 19.473000 # 2OT SPC
431 144 1 0.423800 6.186000 23.517000 18.568001 # 1HT SPC
432 144 1 0.423800 4.831000 24.216000 19.455000 # 1HT SPC
433 145 2 -0.847600 19.535999 10.264000 28.638000 # 2OT SPC
434 145 1 0.423800 19.820000 9.716000 29.525000 # 1HT SPC
435 145 1 0.423800 18.679001 10.882000 28.856001 # 1HT SPC
436 146 2 -0.847600 33.230999 12.873000 27.868999 # 2OT SPC
437 146 1 0.423800 32.664001 13.159000 26.995001 # 1HT SPC
438 146 1 0.423800 32.553001 12.598000 28.664000 # 1HT SPC
439 147 2 -0.847600 19.764000 26.879999 32.994999 # 2OT SPC
440 147 1 0.423800 19.305000 26.117001 32.383999 # 1HT SPC
441 147 1 0.423800 20.825001 26.909000 32.799000 # 1HT SPC
442 148 2 -0.847600 14.782000 27.657000 26.030001 # 2OT SPC
443 148 1 0.423800 14.009000 27.785999 26.773001 # 1HT SPC
444 148 1 0.423800 14.900000 26.606001 25.812000 # 1HT SPC
445 149 2 -0.847600 10.060000 14.477000 13.711000 # 2OT SPC
446 149 1 0.423800 11.027000 14.931000 13.552000 # 1HT SPC
447 149 1 0.423800 10.191000 13.474000 14.090000 # 1HT SPC
448 150 2 -0.847600 2.428000 37.355999 7.699000 # 2OT SPC
449 150 1 0.423800 3.076000 37.514999 6.850000 # 1HT SPC
450 150 1 0.423800 2.676000 36.417000 8.171000 # 1HT SPC
451 151 2 -0.847600 15.801000 29.945999 26.754999 # 2OT SPC
452 151 1 0.423800 16.816999 30.058001 27.104000 # 1HT SPC
453 151 1 0.423800 15.201000 29.493999 27.531000 # 1HT SPC
454 152 2 -0.847600 28.024000 37.467999 25.556999 # 2OT SPC
455 152 1 0.423800 28.910999 36.917000 25.834000 # 1HT SPC
456 152 1 0.423800 27.948999 37.511002 24.480000 # 1HT SPC
457 153 2 -0.847600 13.427000 33.430000 35.979000 # 2OT SPC
458 153 1 0.423800 12.921000 34.268002 35.523998 # 1HT SPC
459 153 1 0.423800 14.248000 33.118999 35.351002 # 1HT SPC
460 154 2 -0.847600 11.583000 32.175999 20.389000 # 2OT SPC
461 154 1 0.423800 12.136000 31.327999 20.766001 # 1HT SPC
462 154 1 0.423800 11.271000 32.798000 21.214001 # 1HT SPC
463 155 2 -0.847600 7.674000 16.518000 34.060001 # 2OT SPC
464 155 1 0.423800 8.177000 16.969000 34.903000 # 1HT SPC
465 155 1 0.423800 7.180000 17.285000 33.483002 # 1HT SPC
466 156 2 -0.847600 29.264000 13.636000 24.579000 # 2OT SPC
467 156 1 0.423800 28.528999 13.071000 25.134001 # 1HT SPC
468 156 1 0.423800 30.009001 14.022000 25.257999 # 1HT SPC
469 157 2 -0.847600 10.052000 25.355000 20.554001 # 2OT SPC
470 157 1 0.423800 9.874000 24.851000 19.615000 # 1HT SPC
471 157 1 0.423800 10.310000 24.628000 21.309000 # 1HT SPC
472 158 2 -0.847600 25.615000 22.628000 11.515000 # 2OT SPC
473 158 1 0.423800 26.653000 22.663000 11.812000 # 1HT SPC
474 158 1 0.423800 24.990000 22.858000 12.365000 # 1HT SPC
475 159 2 -0.847600 28.025999 28.632000 37.207001 # 2OT SPC
476 159 1 0.423800 28.853001 29.292999 37.417000 # 1HT SPC
477 159 1 0.423800 27.417000 29.054001 36.421001 # 1HT SPC
478 160 2 -0.847600 1.963000 4.779000 16.700001 # 2OT SPC
479 160 1 0.423800 2.168000 3.899000 16.108999 # 1HT SPC
480 160 1 0.423800 2.894000 5.220000 17.024000 # 1HT SPC
481 161 2 -0.847600 23.173000 16.747999 34.422001 # 2OT SPC
482 161 1 0.423800 23.657000 15.987000 35.015999 # 1HT SPC
483 161 1 0.423800 22.201000 16.965000 34.838001 # 1HT SPC
484 162 2 -0.847600 9.097000 4.668000 15.246000 # 2OT SPC
485 162 1 0.423800 9.300000 4.114000 14.342000 # 1HT SPC
486 162 1 0.423800 8.994000 3.981000 16.073000 # 1HT SPC
487 163 2 -0.847600 16.000000 16.926001 18.906000 # 2OT SPC
488 163 1 0.423800 16.302999 16.662001 17.903000 # 1HT SPC
489 163 1 0.423800 15.691000 17.961000 18.927999 # 1HT SPC
490 164 2 -0.847600 36.645000 1.054000 27.212000 # 2OT SPC
491 164 1 0.423800 36.282001 0.193000 26.670000 # 1HT SPC
492 164 1 0.423800 35.839001 1.480000 27.791000 # 1HT SPC
493 165 2 -0.847600 15.738000 0.671000 28.044001 # 2OT SPC
494 165 1 0.423800 16.145000 0.005000 27.297001 # 1HT SPC
495 165 1 0.423800 15.895000 0.249000 29.025999 # 1HT SPC
496 166 2 -0.847600 36.071999 2.285000 34.924999 # 2OT SPC
497 166 1 0.423800 35.445000 2.056000 35.773998 # 1HT SPC
498 166 1 0.423800 36.853001 2.967000 35.227001 # 1HT SPC
499 167 2 -0.847600 28.601000 1.310000 3.990000 # 2OT SPC
500 167 1 0.423800 28.844000 1.571000 2.970000 # 1HT SPC
501 167 1 0.423800 27.785000 1.928000 4.335000 # 1HT SPC
502 168 2 -0.847600 21.131001 32.143002 1.769000 # 2OT SPC
503 168 1 0.423800 22.007999 32.578999 1.314000 # 1HT SPC
504 168 1 0.423800 20.966000 31.157000 1.362000 # 1HT SPC
505 169 2 -0.847600 36.653000 0.160000 29.355000 # 2OT SPC
506 169 1 0.423800 35.609001 0.132000 29.631001 # 1HT SPC
507 169 1 0.423800 37.250000 0.368000 30.230000 # 1HT SPC
508 170 2 -0.847600 1.024000 27.648001 24.218000 # 2OT SPC
509 170 1 0.423800 1.046000 26.847000 23.493999 # 1HT SPC
510 170 1 0.423800 0.983000 27.232000 25.214001 # 1HT SPC
511 171 2 -0.847600 4.612000 2.225000 8.805000 # 2OT SPC