LAMMPS data file. CGCMM style. atom_style full generated by VMD/TopoTools v1.7 on Sat Jan 28 17:29:30 IST 2023
 4500 atoms
 3000 bonds
 1500 angles
 0 dihedrals
 0 impropers
 2 atom types
 1 bond types
 1 angle types
 0 dihedral types
 0 improper types
  -0.0130 36.8340  xlo xhi
  -0.0250 36.8530  ylo yhi
  -0.0330 36.8490  zlo zhi

# Pair Coeffs
#
# 1  1HT
# 2  2OT

# Bond Coeffs
#
# 1  1HT-2OT

# Angle Coeffs
#
# 1  1HT-2OT-1HT

 Masses

 1 1.007940 # 1HT
 2 15.999400 # 2OT

 Atoms # full

1 1 2 -0.847600 28.797001 15.453000 8.090000 # 2OT SPC
2 1 1 0.423800 28.049000 14.783000 7.693000 # 1HT SPC
3 1 1 0.423800 28.444000 16.471001 8.015000 # 1HT SPC
4 2 2 -0.847600 11.293000 18.378000 15.100000 # 2OT SPC
5 2 1 0.423800 11.064000 17.711000 14.282000 # 1HT SPC
6 2 1 0.423800 12.364000 18.450001 15.216000 # 1HT SPC
7 3 2 -0.847600 18.990000 -0.025000 15.498000 # 2OT SPC
8 3 1 0.423800 18.621000 0.704000 14.792000 # 1HT SPC
9 3 1 0.423800 19.580000 0.471000 16.254000 # 1HT SPC
10 4 2 -0.847600 28.348000 6.156000 16.544001 # 2OT SPC
11 4 1 0.423800 27.934999 5.993000 17.528999 # 1HT SPC
12 4 1 0.423800 29.212000 6.800000 16.618000 # 1HT SPC
13 5 2 -0.847600 26.386000 11.101000 35.577999 # 2OT SPC
14 5 1 0.423800 26.801001 11.311000 36.553001 # 1HT SPC
15 5 1 0.423800 27.171000 11.138000 34.837002 # 1HT SPC
16 6 2 -0.847600 1.045000 35.382999 33.905998 # 2OT SPC
17 6 1 0.423800 -0.000000 35.469002 34.164001 # 1HT SPC
18 6 1 0.423800 1.650000 35.680000 34.749001 # 1HT SPC
19 7 2 -0.847600 11.112000 34.183998 1.614000 # 2OT SPC
20 7 1 0.423800 11.701000 34.625999 2.405000 # 1HT SPC
21 7 1 0.423800 10.275000 33.653000 2.042000 # 1HT SPC
22 8 2 -0.847600 17.150999 34.786999 11.798000 # 2OT SPC
23 8 1 0.423800 16.730000 35.556999 11.169000 # 1HT SPC
24 8 1 0.423800 16.358000 34.160999 12.180000 # 1HT SPC
25 9 2 -0.847600 35.792999 25.573999 26.889000 # 2OT SPC
26 9 1 0.423800 35.264000 25.184000 26.032000 # 1HT SPC
27 9 1 0.423800 35.206001 25.410000 27.780001 # 1HT SPC
28 10 2 -0.847600 21.724001 18.809999 36.188000 # 2OT SPC
29 10 1 0.423800 21.290001 18.742001 35.202000 # 1HT SPC
30 10 1 0.423800 21.117001 19.455000 36.805000 # 1HT SPC
31 11 2 -0.847600 34.424999 33.896000 33.578999 # 2OT SPC
32 11 1 0.423800 33.650002 34.647999 33.605000 # 1HT SPC
33 11 1 0.423800 34.896000 33.897999 32.606998 # 1HT SPC
34 12 2 -0.847600 3.404000 14.662000 16.497999 # 2OT SPC
35 12 1 0.423800 4.426000 14.607000 16.152000 # 1HT SPC
36 12 1 0.423800 2.749000 14.842000 15.659000 # 1HT SPC
37 13 2 -0.847600 11.250000 16.830000 1.165000 # 2OT SPC
38 13 1 0.423800 11.197000 16.023001 0.450000 # 1HT SPC
39 13 1 0.423800 12.234000 16.851999 1.611000 # 1HT SPC
40 14 2 -0.847600 14.066000 26.179001 4.545000 # 2OT SPC
41 14 1 0.423800 15.009000 26.497999 4.962000 # 1HT SPC
42 14 1 0.423800 13.543000 25.566000 5.264000 # 1HT SPC
43 15 2 -0.847600 33.137001 23.034000 13.226000 # 2OT SPC
44 15 1 0.423800 33.688999 22.841000 12.319000 # 1HT SPC
45 15 1 0.423800 32.342999 23.737000 13.022000 # 1HT SPC
46 16 2 -0.847600 11.931000 26.648001 36.497002 # 2OT SPC
47 16 1 0.423800 10.880000 26.790001 36.292999 # 1HT SPC
48 16 1 0.423800 12.423000 26.270000 35.612999 # 1HT SPC
49 17 2 -0.847600 8.043000 5.408000 29.002001 # 2OT SPC
50 17 1 0.423800 7.930000 4.669000 28.223000 # 1HT SPC
51 17 1 0.423800 7.544000 5.068000 29.896999 # 1HT SPC
52 18 2 -0.847600 23.971001 20.701000 0.439000 # 2OT SPC
53 18 1 0.423800 24.038000 21.684999 0.000000 # 1HT SPC
54 18 1 0.423800 24.915001 20.445999 0.898000 # 1HT SPC
55 19 2 -0.847600 24.836000 8.616000 16.457001 # 2OT SPC
56 19 1 0.423800 23.763000 8.570000 16.576000 # 1HT SPC
57 19 1 0.423800 25.087999 8.489000 15.415000 # 1HT SPC
58 20 2 -0.847600 11.150000 8.379000 27.482000 # 2OT SPC
59 20 1 0.423800 12.110000 8.755000 27.802999 # 1HT SPC
60 20 1 0.423800 10.688000 7.834000 28.292000 # 1HT SPC
61 21 2 -0.847600 33.994999 21.122000 14.219000 # 2OT SPC
62 21 1 0.423800 34.451000 21.583000 15.083000 # 1HT SPC
63 21 1 0.423800 34.283001 20.082001 14.173000 # 1HT SPC
64 22 2 -0.847600 33.172001 31.884001 33.619999 # 2OT SPC
65 22 1 0.423800 33.939999 31.709000 32.881001 # 1HT SPC
66 22 1 0.423800 32.231998 32.076000 33.125000 # 1HT SPC
67 23 2 -0.847600 20.186001 18.471001 27.808001 # 2OT SPC
68 23 1 0.423800 21.121000 17.931999 27.848000 # 1HT SPC
69 23 1 0.423800 19.485001 18.025999 28.499001 # 1HT SPC
70 24 2 -0.847600 2.046000 22.125999 24.427000 # 2OT SPC
71 24 1 0.423800 1.925000 21.684999 23.448999 # 1HT SPC
72 24 1 0.423800 1.229000 21.820000 25.063999 # 1HT SPC
73 25 2 -0.847600 24.799000 3.021000 3.733000 # 2OT SPC
74 25 1 0.423800 25.615999 3.707000 3.901000 # 1HT SPC
75 25 1 0.423800 23.882999 3.455000 4.104000 # 1HT SPC
76 26 2 -0.847600 2.960000 0.718000 5.543000 # 2OT SPC
77 26 1 0.423800 2.639000 0.105000 6.372000 # 1HT SPC
78 26 1 0.423800 2.174000 0.766000 4.805000 # 1HT SPC
79 27 2 -0.847600 21.903000 25.650000 17.712999 # 2OT SPC
80 27 1 0.423800 21.674000 25.993999 16.715000 # 1HT SPC
81 27 1 0.423800 21.475000 26.329000 18.434999 # 1HT SPC
82 28 2 -0.847600 0.693000 32.831001 31.884001 # 2OT SPC
83 28 1 0.423800 0.112000 33.127998 32.743999 # 1HT SPC
84 28 1 0.423800 1.148000 33.702999 31.438000 # 1HT SPC
85 29 2 -0.847600 36.780998 31.702999 16.812000 # 2OT SPC
86 29 1 0.423800 36.789001 30.624001 16.877001 # 1HT SPC
87 29 1 0.423800 36.091999 32.102001 17.542000 # 1HT SPC
88 30 2 -0.847600 23.357000 14.582000 30.059999 # 2OT SPC
89 30 1 0.423800 24.329000 14.243000 30.386999 # 1HT SPC
90 30 1 0.423800 23.419001 14.922000 29.038000 # 1HT SPC
91 31 2 -0.847600 8.423000 33.636002 13.011000 # 2OT SPC
92 31 1 0.423800 9.020000 32.806000 13.362000 # 1HT SPC
93 31 1 0.423800 8.618000 33.801998 11.963000 # 1HT SPC
94 32 2 -0.847600 14.672000 33.914001 -0.004000 # 2OT SPC
95 32 1 0.423800 14.041000 34.779999 0.133000 # 1HT SPC
96 32 1 0.423800 15.101000 33.626999 0.944000 # 1HT SPC
97 33 2 -0.847600 1.327000 2.841000 17.745001 # 2OT SPC
98 33 1 0.423800 0.433000 3.397000 17.986000 # 1HT SPC
99 33 1 0.423800 1.932000 2.730000 18.632999 # 1HT SPC
100 34 2 -0.847600 9.411000 1.981000 9.164000 # 2OT SPC
101 34 1 0.423800 9.543000 2.317000 8.146000 # 1HT SPC
102 34 1 0.423800 9.211000 2.830000 9.800000 # 1HT SPC
103 35 2 -0.847600 17.518000 21.410000 21.552999 # 2OT SPC
104 35 1 0.423800 17.208000 20.409000 21.292000 # 1HT SPC
105 35 1 0.423800 18.004000 21.870001 20.705999 # 1HT SPC
106 36 2 -0.847600 11.162000 12.064000 32.169998 # 2OT SPC
107 36 1 0.423800 12.136000 12.502000 32.009998 # 1HT SPC
108 36 1 0.423800 10.407000 12.688000 31.715000 # 1HT SPC
109 37 2 -0.847600 0.342000 34.494999 28.615000 # 2OT SPC
110 37 1 0.423800 0.002000 33.563000 28.188000 # 1HT SPC
111 37 1 0.423800 0.290000 34.438000 29.691999 # 1HT SPC
112 38 2 -0.847600 28.171000 3.974000 29.197001 # 2OT SPC
113 38 1 0.423800 28.108999 5.037000 29.379999 # 1HT SPC
114 38 1 0.423800 28.754999 3.796000 28.306000 # 1HT SPC
115 39 2 -0.847600 13.914000 0.612000 0.888000 # 2OT SPC
116 39 1 0.423800 14.396000 0.052000 1.676000 # 1HT SPC
117 39 1 0.423800 13.967000 1.667000 1.112000 # 1HT SPC
118 40 2 -0.847600 22.712999 16.881001 8.093000 # 2OT SPC
119 40 1 0.423800 21.788000 17.362000 7.814000 # 1HT SPC
120 40 1 0.423800 22.752001 15.894000 7.656000 # 1HT SPC
121 41 2 -0.847600 21.058001 21.995001 14.832000 # 2OT SPC
122 41 1 0.423800 21.462000 22.993999 14.908000 # 1HT SPC
123 41 1 0.423800 20.613001 21.860001 13.858000 # 1HT SPC
124 42 2 -0.847600 0.234000 4.172000 32.418999 # 2OT SPC
125 42 1 0.423800 0.000000 5.214000 32.254002 # 1HT SPC
126 42 1 0.423800 0.353000 3.993000 33.477001 # 1HT SPC
127 43 2 -0.847600 21.555000 30.698000 17.466000 # 2OT SPC
128 43 1 0.423800 21.839001 29.882000 18.114000 # 1HT SPC
129 43 1 0.423800 20.670000 31.177000 17.857000 # 1HT SPC
130 44 2 -0.847600 7.953000 33.298000 9.489000 # 2OT SPC
131 44 1 0.423800 8.344000 34.305000 9.495000 # 1HT SPC
132 44 1 0.423800 7.250000 33.180000 10.300000 # 1HT SPC
133 45 2 -0.847600 16.447001 17.108999 0.938000 # 2OT SPC
134 45 1 0.423800 17.322001 16.502001 0.759000 # 1HT SPC
135 45 1 0.423800 15.954000 17.316999 -0.000000 # 1HT SPC
136 46 2 -0.847600 9.545000 9.314000 5.747000 # 2OT SPC
137 46 1 0.423800 9.677000 8.314000 6.134000 # 1HT SPC
138 46 1 0.423800 9.680000 9.306000 4.676000 # 1HT SPC
139 47 2 -0.847600 32.887001 5.327000 28.427000 # 2OT SPC
140 47 1 0.423800 33.534000 6.048000 28.905001 # 1HT SPC
141 47 1 0.423800 31.948000 5.797000 28.174999 # 1HT SPC
142 48 2 -0.847600 1.763000 8.425000 31.798000 # 2OT SPC
143 48 1 0.423800 1.076000 7.656000 32.120998 # 1HT SPC
144 48 1 0.423800 1.513000 8.733000 30.794001 # 1HT SPC
145 49 2 -0.847600 7.479000 18.403000 12.293000 # 2OT SPC
146 49 1 0.423800 6.753000 19.200001 12.364000 # 1HT SPC
147 49 1 0.423800 8.451000 18.774000 12.583000 # 1HT SPC
148 50 2 -0.847600 24.215000 5.026000 25.600000 # 2OT SPC
149 50 1 0.423800 23.693001 4.108000 25.825001 # 1HT SPC
150 50 1 0.423800 24.236000 5.653000 26.479000 # 1HT SPC
151 51 2 -0.847600 33.394001 23.552999 16.521999 # 2OT SPC
152 51 1 0.423800 33.257999 22.500999 16.726000 # 1HT SPC
153 51 1 0.423800 34.011002 23.673000 15.644000 # 1HT SPC
154 52 2 -0.847600 7.636000 3.663000 36.806000 # 2OT SPC
155 52 1 0.423800 8.280000 3.013000 36.231998 # 1HT SPC
156 52 1 0.423800 7.177000 4.386000 36.148998 # 1HT SPC
157 53 2 -0.847600 22.091000 16.468000 11.579000 # 2OT SPC
158 53 1 0.423800 21.643000 15.661000 11.018000 # 1HT SPC
159 53 1 0.423800 22.483999 16.084999 12.509000 # 1HT SPC
160 54 2 -0.847600 0.861000 31.750999 3.548000 # 2OT SPC
161 54 1 0.423800 1.301000 30.764000 3.561000 # 1HT SPC
162 54 1 0.423800 0.318000 31.891001 2.625000 # 1HT SPC
163 55 2 -0.847600 13.953000 16.198999 3.073000 # 2OT SPC
164 55 1 0.423800 13.963000 15.124000 3.176000 # 1HT SPC
165 55 1 0.423800 14.834000 16.518000 2.536000 # 1HT SPC
166 56 2 -0.847600 33.467999 28.421000 4.060000 # 2OT SPC
167 56 1 0.423800 34.305000 28.993999 3.690000 # 1HT SPC
168 56 1 0.423800 33.015999 28.940001 4.892000 # 1HT SPC
169 57 2 -0.847600 19.875999 27.316000 21.412001 # 2OT SPC
170 57 1 0.423800 20.497000 26.774000 22.108999 # 1HT SPC
171 57 1 0.423800 19.010000 27.704000 21.927999 # 1HT SPC
172 58 2 -0.847600 11.637000 9.731000 13.652000 # 2OT SPC
173 58 1 0.423800 12.317000 8.948000 13.953000 # 1HT SPC
174 58 1 0.423800 11.619000 10.502000 14.408000 # 1HT SPC
175 59 2 -0.847600 29.424000 29.433001 6.397000 # 2OT SPC
176 59 1 0.423800 28.605000 30.107000 6.198000 # 1HT SPC
177 59 1 0.423800 29.035000 28.475000 6.706000 # 1HT SPC
178 60 2 -0.847600 30.403000 20.214001 17.820999 # 2OT SPC
179 60 1 0.423800 30.832001 19.386999 17.275000 # 1HT SPC
180 60 1 0.423800 29.587000 20.636000 17.254000 # 1HT SPC
181 61 2 -0.847600 23.042999 3.135000 11.010000 # 2OT SPC
182 61 1 0.423800 23.921000 2.563000 10.749000 # 1HT SPC
183 61 1 0.423800 22.747000 3.744000 10.168000 # 1HT SPC
184 62 2 -0.847600 36.834000 1.366000 20.120001 # 2OT SPC
185 62 1 0.423800 36.421001 0.385000 19.936001 # 1HT SPC
186 62 1 0.423800 36.693001 1.627000 21.158001 # 1HT SPC
187 63 2 -0.847600 27.747999 15.702000 0.905000 # 2OT SPC
188 63 1 0.423800 27.021999 14.928000 1.107000 # 1HT SPC
189 63 1 0.423800 27.902000 16.292999 1.796000 # 1HT SPC
190 64 2 -0.847600 30.288000 8.172000 15.181000 # 2OT SPC
191 64 1 0.423800 31.216000 7.632000 15.062000 # 1HT SPC
192 64 1 0.423800 30.028999 8.652000 14.249000 # 1HT SPC
193 65 2 -0.847600 29.743000 24.724001 30.844000 # 2OT SPC
194 65 1 0.423800 30.702000 24.535999 31.302000 # 1HT SPC
195 65 1 0.423800 29.073000 23.906000 31.063000 # 1HT SPC
196 66 2 -0.847600 16.865000 35.736000 36.737000 # 2OT SPC
197 66 1 0.423800 17.921000 35.523998 36.813000 # 1HT SPC
198 66 1 0.423800 16.714001 36.804001 36.696999 # 1HT SPC
199 67 2 -0.847600 20.399000 31.584000 35.785999 # 2OT SPC
200 67 1 0.423800 19.327000 31.476999 35.706001 # 1HT SPC
201 67 1 0.423800 20.820000 30.686001 36.214001 # 1HT SPC
202 68 2 -0.847600 33.553001 33.388000 20.674000 # 2OT SPC
203 68 1 0.423800 33.939999 32.387001 20.552000 # 1HT SPC
204 68 1 0.423800 33.574001 33.900002 19.724001 # 1HT SPC
205 69 2 -0.847600 26.409000 18.993999 8.845000 # 2OT SPC
206 69 1 0.423800 26.768999 20.011000 8.783000 # 1HT SPC
207 69 1 0.423800 27.121000 18.330999 8.377000 # 1HT SPC
208 70 2 -0.847600 0.084000 32.959000 19.084000 # 2OT SPC
209 70 1 0.423800 0.649000 33.855000 19.292000 # 1HT SPC
210 70 1 0.423800 0.543000 32.425999 18.264999 # 1HT SPC
211 71 2 -0.847600 4.560000 35.750999 1.901000 # 2OT SPC
212 71 1 0.423800 4.222000 36.115002 2.860000 # 1HT SPC
213 71 1 0.423800 5.567000 35.372002 1.993000 # 1HT SPC
214 72 2 -0.847600 6.053000 1.134000 7.522000 # 2OT SPC
215 72 1 0.423800 5.653000 0.373000 8.175000 # 1HT SPC
216 72 1 0.423800 7.091000 0.922000 7.315000 # 1HT SPC
217 73 2 -0.847600 31.172001 9.908000 7.701000 # 2OT SPC
218 73 1 0.423800 30.389000 9.192000 7.499000 # 1HT SPC
219 73 1 0.423800 31.725000 9.600000 8.575000 # 1HT SPC
220 74 2 -0.847600 13.855000 12.592000 15.808000 # 2OT SPC
221 74 1 0.423800 13.829000 13.384000 15.075000 # 1HT SPC
222 74 1 0.423800 13.694000 11.643000 15.319000 # 1HT SPC
223 75 2 -0.847600 27.948000 13.016000 4.566000 # 2OT SPC
224 75 1 0.423800 27.747999 11.975000 4.358000 # 1HT SPC
225 75 1 0.423800 28.434000 13.467000 3.715000 # 1HT SPC
226 76 2 -0.847600 22.506001 32.332001 8.859000 # 2OT SPC
227 76 1 0.423800 21.443001 32.500999 8.768000 # 1HT SPC
228 76 1 0.423800 22.934999 32.199001 7.877000 # 1HT SPC
229 77 2 -0.847600 11.001000 -0.001000 6.546000 # 2OT SPC
230 77 1 0.423800 11.890000 0.075000 5.937000 # 1HT SPC
231 77 1 0.423800 10.680000 0.987000 6.839000 # 1HT SPC
232 78 2 -0.847600 9.328000 26.257999 34.298000 # 2OT SPC
233 78 1 0.423800 8.594000 25.497000 34.074001 # 1HT SPC
234 78 1 0.423800 9.968000 26.405001 33.441002 # 1HT SPC
235 79 2 -0.847600 28.110001 26.861000 1.112000 # 2OT SPC
236 79 1 0.423800 28.674000 26.033001 0.709000 # 1HT SPC
237 79 1 0.423800 27.973000 26.719999 2.173000 # 1HT SPC
238 80 2 -0.847600 22.343000 35.645000 1.123000 # 2OT SPC
239 80 1 0.423800 21.471001 36.014999 1.643000 # 1HT SPC
240 80 1 0.423800 22.937000 35.046001 1.797000 # 1HT SPC
241 81 2 -0.847600 1.680000 32.094002 27.082001 # 2OT SPC
242 81 1 0.423800 1.747000 31.146999 27.596001 # 1HT SPC
243 81 1 0.423800 1.932000 31.958000 26.041000 # 1HT SPC
244 82 2 -0.847600 28.113001 8.762000 11.571000 # 2OT SPC
245 82 1 0.423800 27.677000 9.323000 10.758000 # 1HT SPC
246 82 1 0.423800 29.066000 9.193000 11.836000 # 1HT SPC
247 83 2 -0.847600 34.716999 12.664000 7.090000 # 2OT SPC
248 83 1 0.423800 33.801998 13.211000 7.269000 # 1HT SPC
249 83 1 0.423800 35.369999 12.766000 7.943000 # 1HT SPC
250 84 2 -0.847600 32.238998 22.459000 29.659000 # 2OT SPC
251 84 1 0.423800 31.320999 21.902000 29.782000 # 1HT SPC
252 84 1 0.423800 32.286999 23.242001 30.402000 # 1HT SPC
253 85 2 -0.847600 3.329000 31.944000 5.570000 # 2OT SPC
254 85 1 0.423800 2.268000 32.026001 5.381000 # 1HT SPC
255 85 1 0.423800 3.726000 31.097000 5.031000 # 1HT SPC
256 86 2 -0.847600 28.764000 2.951000 19.353001 # 2OT SPC
257 86 1 0.423800 28.037001 3.429000 18.714001 # 1HT SPC
258 86 1 0.423800 28.278999 2.601000 20.252001 # 1HT SPC
259 87 2 -0.847600 16.833000 24.393999 18.555000 # 2OT SPC
260 87 1 0.423800 17.100000 24.513000 19.594999 # 1HT SPC
261 87 1 0.423800 15.833000 24.770000 18.396000 # 1HT SPC
262 88 2 -0.847600 15.551000 14.640000 36.720001 # 2OT SPC
263 88 1 0.423800 15.424000 13.570000 36.783001 # 1HT SPC
264 88 1 0.423800 14.589000 15.123000 36.799999 # 1HT SPC
265 89 2 -0.847600 7.632000 27.659000 17.698999 # 2OT SPC
266 89 1 0.423800 7.062000 28.375000 18.274000 # 1HT SPC
267 89 1 0.423800 8.592000 28.084000 17.445000 # 1HT SPC
268 90 2 -0.847600 31.132999 26.261999 20.582001 # 2OT SPC
269 90 1 0.423800 31.860001 27.011000 20.301001 # 1HT SPC
270 90 1 0.423800 30.549000 25.983999 19.718000 # 1HT SPC
271 91 2 -0.847600 18.559999 31.205000 31.082001 # 2OT SPC
272 91 1 0.423800 18.114000 30.395000 31.639999 # 1HT SPC
273 91 1 0.423800 17.820999 31.642000 30.427000 # 1HT SPC
274 92 2 -0.847600 25.099001 18.108000 3.677000 # 2OT SPC
275 92 1 0.423800 25.232000 18.313000 4.729000 # 1HT SPC
276 92 1 0.423800 24.851000 19.023001 3.161000 # 1HT SPC
277 93 2 -0.847600 18.438000 8.673000 20.190001 # 2OT SPC
278 93 1 0.423800 17.576000 9.020000 20.740999 # 1HT SPC
279 93 1 0.423800 18.122999 7.967000 19.437000 # 1HT SPC
280 94 2 -0.847600 11.583000 0.421000 10.788000 # 2OT SPC
281 94 1 0.423800 11.278000 1.457000 10.825000 # 1HT SPC
282 94 1 0.423800 11.318000 0.002000 9.828000 # 1HT SPC
283 95 2 -0.847600 6.087000 16.862000 21.403999 # 2OT SPC
284 95 1 0.423800 5.038000 16.889000 21.150000 # 1HT SPC
285 95 1 0.423800 6.297000 17.618999 22.145000 # 1HT SPC
286 96 2 -0.847600 5.431000 14.729000 21.405001 # 2OT SPC
287 96 1 0.423800 5.357000 15.058000 22.431000 # 1HT SPC
288 96 1 0.423800 4.637000 14.029000 21.193001 # 1HT SPC
289 97 2 -0.847600 24.431999 19.073000 12.025000 # 2OT SPC
290 97 1 0.423800 24.212999 18.202999 12.628000 # 1HT SPC
291 97 1 0.423800 25.261999 19.611000 12.458000 # 1HT SPC
292 98 2 -0.847600 4.343000 36.405998 28.099001 # 2OT SPC
293 98 1 0.423800 5.327000 36.799999 28.306999 # 1HT SPC
294 98 1 0.423800 3.969000 35.893002 28.972000 # 1HT SPC
295 99 2 -0.847600 23.740999 34.258999 21.111000 # 2OT SPC
296 99 1 0.423800 24.763000 33.997002 20.878000 # 1HT SPC
297 99 1 0.423800 23.497999 35.205002 20.650999 # 1HT SPC
298 100 2 -0.847600 1.625000 32.181999 30.014000 # 2OT SPC
299 100 1 0.423800 0.649000 31.775000 29.792999 # 1HT SPC
300 100 1 0.423800 1.947000 32.807999 29.195999 # 1HT SPC
301 101 2 -0.847600 11.260000 9.384000 30.343000 # 2OT SPC
302 101 1 0.423800 11.479000 10.132000 31.091000 # 1HT SPC
303 101 1 0.423800 11.474000 8.403000 30.742001 # 1HT SPC
304 102 2 -0.847600 21.462000 35.368000 4.471000 # 2OT SPC
305 102 1 0.423800 22.406000 34.948002 4.156000 # 1HT SPC
306 102 1 0.423800 21.412001 36.404999 4.174000 # 1HT SPC
307 103 2 -0.847600 12.290000 14.382000 6.436000 # 2OT SPC
308 103 1 0.423800 13.310000 14.706000 6.296000 # 1HT SPC
309 103 1 0.423800 11.904000 14.794000 7.357000 # 1HT SPC
310 104 2 -0.847600 0.884000 13.430000 2.191000 # 2OT SPC
311 104 1 0.423800 0.000000 12.830000 2.034000 # 1HT SPC
312 104 1 0.423800 1.351000 13.640000 1.241000 # 1HT SPC
313 105 2 -0.847600 6.501000 9.644000 16.385000 # 2OT SPC
314 105 1 0.423800 6.620000 8.611000 16.677999 # 1HT SPC
315 105 1 0.423800 6.268000 9.695000 15.332000 # 1HT SPC
316 106 2 -0.847600 28.284000 1.246000 28.667000 # 2OT SPC
317 106 1 0.423800 28.309000 1.238000 27.587000 # 1HT SPC
318 106 1 0.423800 27.299999 0.957000 29.006001 # 1HT SPC
319 107 2 -0.847600 23.620001 6.455000 20.371000 # 2OT SPC
320 107 1 0.423800 23.854000 5.485000 20.785000 # 1HT SPC
321 107 1 0.423800 22.632999 6.755000 20.690001 # 1HT SPC
322 108 2 -0.847600 27.297001 27.941000 21.021000 # 2OT SPC
323 108 1 0.423800 26.559999 27.260000 21.420000 # 1HT SPC
324 108 1 0.423800 28.271000 27.476000 21.049999 # 1HT SPC
325 109 2 -0.847600 31.079000 7.813000 9.710000 # 2OT SPC
326 109 1 0.423800 30.349001 8.422000 10.221000 # 1HT SPC
327 109 1 0.423800 31.617001 7.215000 10.431000 # 1HT SPC
328 110 2 -0.847600 27.683001 26.500999 28.586000 # 2OT SPC
329 110 1 0.423800 26.916000 27.006001 28.018999 # 1HT SPC
330 110 1 0.423800 27.893000 25.542999 28.135000 # 1HT SPC
331 111 2 -0.847600 24.211000 23.771000 23.757000 # 2OT SPC
332 111 1 0.423800 23.922001 22.735001 23.667999 # 1HT SPC
333 111 1 0.423800 23.653000 24.363001 23.047001 # 1HT SPC
334 112 2 -0.847600 34.275002 32.063000 24.332001 # 2OT SPC
335 112 1 0.423800 33.946999 32.233002 25.347000 # 1HT SPC
336 112 1 0.423800 33.453999 32.238998 23.653000 # 1HT SPC
337 113 2 -0.847600 12.425000 27.236000 0.920000 # 2OT SPC
338 113 1 0.423800 13.161000 27.978001 1.193000 # 1HT SPC
339 113 1 0.423800 12.732000 26.742001 0.010000 # 1HT SPC
340 114 2 -0.847600 3.962000 14.399000 24.216000 # 2OT SPC
341 114 1 0.423800 3.712000 15.407000 24.514000 # 1HT SPC
342 114 1 0.423800 4.865000 14.088000 24.719999 # 1HT SPC
343 115 2 -0.847600 15.944000 25.247000 15.084000 # 2OT SPC
344 115 1 0.423800 16.162001 25.260000 16.142000 # 1HT SPC
345 115 1 0.423800 16.693001 25.816999 14.555000 # 1HT SPC
346 116 2 -0.847600 33.764000 34.797001 24.242001 # 2OT SPC
347 116 1 0.423800 34.682999 34.231998 24.306000 # 1HT SPC
348 116 1 0.423800 33.151001 34.397999 23.448000 # 1HT SPC
349 117 2 -0.847600 6.966000 23.214001 3.596000 # 2OT SPC
350 117 1 0.423800 7.463000 24.173000 3.577000 # 1HT SPC
351 117 1 0.423800 6.498000 23.032000 2.640000 # 1HT SPC
352 118 2 -0.847600 19.777000 31.627001 15.864000 # 2OT SPC
353 118 1 0.423800 18.927999 31.018999 15.588000 # 1HT SPC
354 118 1 0.423800 20.455999 31.698000 15.028000 # 1HT SPC
355 119 2 -0.847600 35.505001 15.890000 27.840000 # 2OT SPC
356 119 1 0.423800 36.445999 15.939000 27.312000 # 1HT SPC
357 119 1 0.423800 35.408001 16.750999 28.483999 # 1HT SPC
358 120 2 -0.847600 30.215000 9.390000 18.666000 # 2OT SPC
359 120 1 0.423800 29.671000 8.876000 19.445000 # 1HT SPC
360 120 1 0.423800 30.374001 8.718000 17.836000 # 1HT SPC
361 121 2 -0.847600 1.580000 14.438000 12.215000 # 2OT SPC
362 121 1 0.423800 0.847000 13.952000 12.842000 # 1HT SPC
363 121 1 0.423800 1.587000 13.972000 11.241000 # 1HT SPC
364 122 2 -0.847600 18.490000 23.462000 15.544000 # 2OT SPC
365 122 1 0.423800 18.975000 22.531000 15.288000 # 1HT SPC
366 122 1 0.423800 17.995001 23.862000 14.672000 # 1HT SPC
367 123 2 -0.847600 35.950001 25.827999 34.569000 # 2OT SPC
368 123 1 0.423800 35.477001 26.788000 34.713001 # 1HT SPC
369 123 1 0.423800 35.200001 25.087999 34.333000 # 1HT SPC
370 124 2 -0.847600 35.173000 11.950000 24.684999 # 2OT SPC
371 124 1 0.423800 35.540001 11.520000 25.605000 # 1HT SPC
372 124 1 0.423800 34.445000 12.715000 24.910000 # 1HT SPC
373 125 2 -0.847600 35.654999 28.089001 14.684000 # 2OT SPC
374 125 1 0.423800 34.790001 28.650999 14.362000 # 1HT SPC
375 125 1 0.423800 36.105999 27.604000 13.832000 # 1HT SPC
376 126 2 -0.847600 30.382999 1.987000 20.709999 # 2OT SPC
377 126 1 0.423800 31.355000 1.866000 21.165001 # 1HT SPC
378 126 1 0.423800 29.851000 1.048000 20.740000 # 1HT SPC
379 127 2 -0.847600 30.353001 28.780001 18.486000 # 2OT SPC
380 127 1 0.423800 31.148001 29.462000 18.749001 # 1HT SPC
381 127 1 0.423800 30.079000 28.195000 19.351000 # 1HT SPC
382 128 2 -0.847600 2.241000 25.979000 1.113000 # 2OT SPC
383 128 1 0.423800 1.568000 25.933001 1.956000 # 1HT SPC
384 128 1 0.423800 1.795000 25.475000 0.269000 # 1HT SPC
385 129 2 -0.847600 9.667000 10.014000 10.664000 # 2OT SPC
386 129 1 0.423800 10.455000 10.088000 9.929000 # 1HT SPC
387 129 1 0.423800 9.419000 11.000000 11.026000 # 1HT SPC
388 130 2 -0.847600 23.945999 31.799000 33.976002 # 2OT SPC
389 130 1 0.423800 24.157000 30.761999 33.761002 # 1HT SPC
390 130 1 0.423800 24.209000 32.014999 35.000999 # 1HT SPC
391 131 2 -0.847600 19.296000 3.880000 34.778999 # 2OT SPC
392 131 1 0.423800 20.301001 3.692000 34.430000 # 1HT SPC
393 131 1 0.423800 18.624001 3.149000 34.355999 # 1HT SPC
394 132 2 -0.847600 3.821000 34.241001 36.087002 # 2OT SPC
395 132 1 0.423800 3.148000 33.943001 35.297001 # 1HT SPC
396 132 1 0.423800 4.213000 33.362000 36.576000 # 1HT SPC
397 133 2 -0.847600 11.210000 21.320999 20.691999 # 2OT SPC
398 133 1 0.423800 11.720000 20.524000 20.172001 # 1HT SPC
399 133 1 0.423800 11.050000 22.148001 20.017000 # 1HT SPC
400 134 2 -0.847600 20.111000 22.419001 6.997000 # 2OT SPC
401 134 1 0.423800 19.565001 21.938999 7.796000 # 1HT SPC
402 134 1 0.423800 20.796000 21.712000 6.553000 # 1HT SPC
403 135 2 -0.847600 0.030000 28.309999 33.278000 # 2OT SPC
404 135 1 0.423800 0.085000 27.264999 33.011002 # 1HT SPC
405 135 1 0.423800 0.353000 28.913000 32.443001 # 1HT SPC
406 136 2 -0.847600 26.150999 8.389000 36.185001 # 2OT SPC
407 136 1 0.423800 25.806999 8.038000 35.223000 # 1HT SPC
408 136 1 0.423800 26.999001 9.043000 36.047001 # 1HT SPC
409 137 2 -0.847600 10.049000 35.284000 33.130001 # 2OT SPC
410 137 1 0.423800 9.137000 34.773998 32.855000 # 1HT SPC
411 137 1 0.423800 9.815000 36.285000 33.462002 # 1HT SPC
412 138 2 -0.847600 12.759000 1.482000 3.386000 # 2OT SPC
413 138 1 0.423800 12.948000 2.400000 3.922000 # 1HT SPC
414 138 1 0.423800 13.189000 0.653000 3.929000 # 1HT SPC
415 139 2 -0.847600 2.524000 6.348000 5.928000 # 2OT SPC
416 139 1 0.423800 1.543000 6.082000 6.293000 # 1HT SPC
417 139 1 0.423800 3.090000 6.813000 6.721000 # 1HT SPC
418 140 2 -0.847600 35.088001 14.891000 30.323000 # 2OT SPC
419 140 1 0.423800 36.020000 15.390000 30.101999 # 1HT SPC
420 140 1 0.423800 34.344002 15.181000 29.596001 # 1HT SPC
421 141 2 -0.847600 21.402000 28.596001 24.009001 # 2OT SPC
422 141 1 0.423800 22.209000 28.461000 24.714001 # 1HT SPC
423 141 1 0.423800 20.465000 28.344000 24.481001 # 1HT SPC
424 142 2 -0.847600 3.581000 4.436000 6.585000 # 2OT SPC
425 142 1 0.423800 4.227000 3.673000 6.177000 # 1HT SPC
426 142 1 0.423800 2.550000 4.144000 6.452000 # 1HT SPC
427 143 2 -0.847600 31.830000 19.919001 10.188000 # 2OT SPC
428 143 1 0.423800 31.101999 20.614000 9.796000 # 1HT SPC
429 143 1 0.423800 32.577999 19.716999 9.435000 # 1HT SPC
430 144 2 -0.847600 5.588000 23.136000 19.188999 # 2OT SPC
431 144 1 0.423800 6.106000 23.261000 18.250000 # 1HT SPC
432 144 1 0.423800 4.854000 23.920000 19.302999 # 1HT SPC
433 145 2 -0.847600 19.267000 10.021000 28.216999 # 2OT SPC
434 145 1 0.423800 19.648001 9.473000 29.066000 # 1HT SPC
435 145 1 0.423800 18.382000 10.566000 28.507999 # 1HT SPC
436 146 2 -0.847600 32.519001 12.654000 27.358000 # 2OT SPC
437 146 1 0.423800 31.975000 12.937000 26.469000 # 1HT SPC
438 146 1 0.423800 31.822001 12.396000 28.141001 # 1HT SPC
439 147 2 -0.847600 19.308001 26.351999 32.418999 # 2OT SPC
440 147 1 0.423800 18.830999 25.628000 31.775000 # 1HT SPC
441 147 1 0.423800 20.379000 26.299000 32.289001 # 1HT SPC
442 148 2 -0.847600 14.410000 27.209000 25.465000 # 2OT SPC
443 148 1 0.423800 13.627000 27.309000 26.202000 # 1HT SPC
444 148 1 0.423800 14.536000 26.166000 25.212999 # 1HT SPC
445 149 2 -0.847600 9.812000 14.199000 13.306000 # 2OT SPC
446 149 1 0.423800 10.786000 14.652000 13.193000 # 1HT SPC
447 149 1 0.423800 9.927000 13.173000 13.621000 # 1HT SPC
448 150 2 -0.847600 2.318000 36.624001 7.597000 # 2OT SPC
449 150 1 0.423800 2.960000 36.813999 6.750000 # 1HT SPC
450 150 1 0.423800 2.577000 35.674000 8.039000 # 1HT SPC
451 151 2 -0.847600 15.430000 29.395000 26.215000 # 2OT SPC
452 151 1 0.423800 16.455000 29.447001 26.554001 # 1HT SPC
453 151 1 0.423800 14.812000 28.983999 27.000000 # 1HT SPC
454 152 2 -0.847600 27.538000 36.790001 25.225000 # 2OT SPC
455 152 1 0.423800 28.341000 36.171001 25.596001 # 1HT SPC
456 152 1 0.423800 27.549000 36.785999 24.145000 # 1HT SPC
457 153 2 -0.847600 13.330000 32.918999 35.473000 # 2OT SPC
458 153 1 0.423800 12.844000 33.776001 35.029999 # 1HT SPC
459 153 1 0.423800 14.122000 32.578999 34.824001 # 1HT SPC
460 154 2 -0.847600 11.581000 31.662001 19.783001 # 2OT SPC
461 154 1 0.423800 12.438000 31.084999 20.098000 # 1HT SPC
462 154 1 0.423800 11.100000 32.094002 20.648001 # 1HT SPC
463 155 2 -0.847600 7.550000 16.250999 33.438999 # 2OT SPC
464 155 1 0.423800 8.087000 16.687000 34.269001 # 1HT SPC
465 155 1 0.423800 7.057000 17.032000 32.880001 # 1HT SPC
466 156 2 -0.847600 28.615000 13.454000 24.225000 # 2OT SPC
467 156 1 0.423800 27.846001 13.022000 24.850000 # 1HT SPC
468 156 1 0.423800 29.455999 13.742000 24.837000 # 1HT SPC
469 157 2 -0.847600 10.076000 25.252001 20.132999 # 2OT SPC
470 157 1 0.423800 9.890000 24.549000 19.334999 # 1HT SPC
471 157 1 0.423800 10.289000 24.714001 21.045000 # 1HT SPC
472 158 2 -0.847600 25.202999 22.246000 11.072000 # 2OT SPC
473 158 1 0.423800 26.240000 22.323999 11.361000 # 1HT SPC
474 158 1 0.423800 24.573999 22.502001 11.912000 # 1HT SPC
475 159 2 -0.847600 27.523001 28.009001 36.612999 # 2OT SPC
476 159 1 0.423800 28.290001 28.749001 36.787998 # 1HT SPC
477 159 1 0.423800 26.893000 28.329000 35.797001 # 1HT SPC
478 160 2 -0.847600 1.931000 4.709000 16.351000 # 2OT SPC
479 160 1 0.423800 2.174000 3.829000 15.772000 # 1HT SPC
480 160 1 0.423800 2.841000 5.174000 16.698999 # 1HT SPC
481 161 2 -0.847600 22.747000 16.452999 33.765999 # 2OT SPC
482 161 1 0.423800 23.034000 15.560000 34.301998 # 1HT SPC
483 161 1 0.423800 21.851000 16.865000 34.206001 # 1HT SPC
484 162 2 -0.847600 9.121000 4.025000 14.909000 # 2OT SPC
485 162 1 0.423800 9.199000 4.061000 13.833000 # 1HT SPC
486 162 1 0.423800 9.295000 3.015000 15.249000 # 1HT SPC
487 163 2 -0.847600 15.551000 16.679001 18.485001 # 2OT SPC
488 163 1 0.423800 15.918000 16.409000 17.506001 # 1HT SPC
489 163 1 0.423800 15.193000 17.698000 18.468000 # 1HT SPC
490 164 2 -0.847600 35.966000 1.045000 26.704000 # 2OT SPC
491 164 1 0.423800 35.622002 0.173000 26.167000 # 1HT SPC
492 164 1 0.423800 35.146000 1.473000 27.260000 # 1HT SPC
493 165 2 -0.847600 15.442000 0.639000 27.520000 # 2OT SPC
494 165 1 0.423800 15.860000 0.000000 26.754999 # 1HT SPC
495 165 1 0.423800 15.598000 0.189000 28.489000 # 1HT SPC
496 166 2 -0.847600 35.292999 2.142000 34.247002 # 2OT SPC
497 166 1 0.423800 34.620998 2.274000 35.082001 # 1HT SPC
498 166 1 0.423800 36.265999 2.531000 34.502998 # 1HT SPC
499 167 2 -0.847600 28.021000 1.285000 3.929000 # 2OT SPC
500 167 1 0.423800 28.252001 1.496000 2.895000 # 1HT SPC
501 167 1 0.423800 27.249001 1.958000 4.269000 # 1HT SPC
502 168 2 -0.847600 20.680000 31.513000 1.677000 # 2OT SPC
503 168 1 0.423800 21.570000 31.934999 1.234000 # 1HT SPC
504 168 1 0.423800 20.513000 30.524000 1.278000 # 1HT SPC
505 169 2 -0.847600 36.042999 0.120000 28.742001 # 2OT SPC
506 169 1 0.423800 35.002998 -0.001000 29.010000 # 1HT SPC
507 169 1 0.423800 36.613998 0.376000 29.621000 # 1HT SPC
508 170 2 -0.847600 1.005000 27.132999 23.760000 # 2OT SPC
509 170 1 0.423800 1.027000 26.332001 23.035000 # 1HT SPC
510 170 1 0.423800 0.965000 26.718000 24.754999 # 1HT SPC
511 171 2 -0.847600 4.422000 2.181000 8.570000 # 2OT SPC