LAMMPS data file. CGCMM style. atom_style full generated by VMD/TopoTools v1.7 on Wed Jan 04 14:53:44 IST 2023
 4500 atoms
 3000 bonds
 1500 angles
 0 dihedrals
 0 impropers
 2 atom types
 1 bond types
 1 angle types
 0 dihedral types
 0 improper types
 -0.500000 0.500000  xlo xhi
 -0.500000 0.500000  ylo yhi
 -0.500000 0.500000  zlo zhi

# Pair Coeffs
#
# 1  1HT
# 2  2OT

# Bond Coeffs
#
# 1  

# Angle Coeffs
#
# 1  unknown

 Masses

 1 1.007940 # 1HT
 2 15.999400 # 2OT

 Atoms # full

1 1 2 -0.847600 27.516001 15.682000 7.197000 # 2OT TIP3
2 1 1 0.423800 27.103001 14.734000 6.888000 # 1HT TIP3
3 1 1 0.423800 27.106001 15.958000 8.157000 # 1HT TIP3
4 2 2 -0.847600 11.281000 17.468000 14.358000 # 2OT TIP3
5 2 1 0.423800 10.609000 17.587000 13.521000 # 1HT TIP3
6 2 1 0.423800 10.979000 18.128000 15.158000 # 1HT TIP3
7 3 2 -0.847600 18.292999 0.129000 15.550000 # 2OT TIP3
8 3 1 0.423800 17.872999 1.112000 15.707000 # 1HT TIP3
9 3 1 0.423800 18.523001 -0.000000 14.503000 # 1HT TIP3
10 4 2 -0.847600 28.024000 6.371000 16.618000 # 2OT TIP3
11 4 1 0.423800 28.990000 6.254000 16.149000 # 1HT TIP3
12 4 1 0.423800 27.247000 6.148000 15.902000 # 1HT TIP3
13 5 2 -0.847600 24.882999 10.900000 34.835999 # 2OT TIP3
14 5 1 0.423800 24.922001 10.265000 33.963001 # 1HT TIP3
15 5 1 0.423800 25.764000 10.738000 35.438000 # 1HT TIP3
16 6 2 -0.847600 11.042000 33.259998 1.148000 # 2OT TIP3
17 6 1 0.423800 11.355000 33.761002 2.053000 # 1HT TIP3
18 6 1 0.423800 10.939000 32.202000 1.339000 # 1HT TIP3
19 7 2 -0.847600 18.586000 31.676001 9.819000 # 2OT TIP3
20 7 1 0.423800 19.055000 30.929001 9.196000 # 1HT TIP3
21 7 1 0.423800 18.273001 32.509998 9.208000 # 1HT TIP3
22 8 2 -0.847600 34.841999 25.039000 26.223000 # 2OT TIP3
23 8 1 0.423800 33.974998 24.464001 25.933001 # 1HT TIP3
24 8 1 0.423800 35.535999 25.086000 25.396999 # 1HT TIP3
25 9 2 -0.847600 21.238001 18.448000 34.925999 # 2OT TIP3
26 9 1 0.423800 20.899000 18.410999 33.901001 # 1HT TIP3
27 9 1 0.423800 20.607000 17.820000 35.535999 # 1HT TIP3
28 10 2 -0.847600 32.612000 33.153000 32.261002 # 2OT TIP3
29 10 1 0.423800 32.810001 34.200001 32.082001 # 1HT TIP3
30 10 1 0.423800 33.521000 32.664001 32.578999 # 1HT TIP3
31 11 2 -0.847600 3.602000 14.890000 15.658000 # 2OT TIP3
32 11 1 0.423800 3.195000 14.660000 14.684000 # 1HT TIP3
33 11 1 0.423800 4.515000 14.333000 15.808000 # 1HT TIP3
34 12 2 -0.847600 10.905000 16.344999 0.645000 # 2OT TIP3
35 12 1 0.423800 11.933000 16.242001 0.329000 # 1HT TIP3
36 12 1 0.423800 10.850000 16.268000 1.720000 # 1HT TIP3
37 13 2 -0.847600 13.011000 25.267000 4.909000 # 2OT TIP3
38 13 1 0.423800 13.461000 25.563999 5.845000 # 1HT TIP3
39 13 1 0.423800 13.242000 24.232000 4.711000 # 1HT TIP3
40 14 2 -0.847600 32.265999 23.066000 13.078000 # 2OT TIP3
41 14 1 0.423800 31.785999 22.514000 12.283000 # 1HT TIP3
42 14 1 0.423800 31.702000 23.962999 13.285000 # 1HT TIP3
43 15 2 -0.847600 11.364000 26.135000 34.828999 # 2OT TIP3
44 15 1 0.423800 12.394000 25.816000 34.880001 # 1HT TIP3
45 15 1 0.423800 10.777000 25.576000 35.542000 # 1HT TIP3
46 16 2 -0.847600 7.778000 4.672000 28.362000 # 2OT TIP3
47 16 1 0.423800 7.850000 3.917000 27.591999 # 1HT TIP3
48 16 1 0.423800 6.816000 4.602000 28.846001 # 1HT TIP3
49 17 2 -0.847600 24.040001 8.114000 15.069000 # 2OT TIP3
50 17 1 0.423800 24.400000 9.105000 15.303000 # 1HT TIP3
51 17 1 0.423800 23.125999 7.925000 15.612000 # 1HT TIP3
52 18 2 -0.847600 11.843000 7.991000 26.832001 # 2OT TIP3
53 18 1 0.423800 11.575000 7.126000 27.421000 # 1HT TIP3
54 18 1 0.423800 10.991000 8.311000 26.252001 # 1HT TIP3
55 19 2 -0.847600 33.737999 19.851000 14.299000 # 2OT TIP3
56 19 1 0.423800 33.064999 20.468000 13.722000 # 1HT TIP3
57 19 1 0.423800 33.841000 20.261999 15.292000 # 1HT TIP3
58 20 2 -0.847600 31.832001 30.554001 31.792000 # 2OT TIP3
59 20 1 0.423800 31.233999 31.396999 32.105999 # 1HT TIP3
60 20 1 0.423800 32.766998 30.908001 31.385000 # 1HT TIP3
61 21 2 -0.847600 18.958000 18.000999 26.819000 # 2OT TIP3
62 21 1 0.423800 19.954000 17.697001 27.105000 # 1HT TIP3
63 21 1 0.423800 18.243000 17.278999 27.183001 # 1HT TIP3
64 22 2 -0.847600 1.014000 21.045000 23.177999 # 2OT TIP3
65 22 1 0.423800 1.611000 20.968000 24.075001 # 1HT TIP3
66 22 1 0.423800 1.662000 21.077000 22.316000 # 1HT TIP3
67 23 2 -0.847600 23.368999 3.082000 4.315000 # 2OT TIP3
68 23 1 0.423800 24.424000 2.921000 4.480000 # 1HT TIP3
69 23 1 0.423800 23.169001 3.100000 3.254000 # 1HT TIP3
70 24 2 -0.847600 8.923000 35.532001 25.992001 # 2OT TIP3
71 24 1 0.423800 8.192000 35.223000 25.259001 # 1HT TIP3
72 24 1 0.423800 8.463000 35.561001 26.968000 # 1HT TIP3
73 25 2 -0.847600 2.427000 0.498000 5.244000 # 2OT TIP3
74 25 1 0.423800 1.382000 0.740000 5.373000 # 1HT TIP3
75 25 1 0.423800 2.909000 0.458000 6.210000 # 1HT TIP3
76 26 2 -0.847600 20.659000 24.774000 16.917999 # 2OT TIP3
77 26 1 0.423800 21.343000 24.851000 16.086000 # 1HT TIP3
78 26 1 0.423800 20.087999 25.687000 17.000000 # 1HT TIP3
79 27 2 -0.847600 0.360000 32.903000 31.125000 # 2OT TIP3
80 27 1 0.423800 -0.002000 31.889999 31.021000 # 1HT TIP3
81 27 1 0.423800 0.776000 33.234001 30.184999 # 1HT TIP3
82 28 2 -0.847600 23.357000 13.368000 29.829000 # 2OT TIP3
83 28 1 0.423800 24.148001 14.071000 29.613001 # 1HT TIP3
84 28 1 0.423800 22.612000 13.413000 29.049000 # 1HT TIP3
85 29 2 -0.847600 8.770000 31.792000 11.837000 # 2OT TIP3
86 29 1 0.423800 8.160000 30.913000 11.691000 # 1HT TIP3
87 29 1 0.423800 8.967000 31.923000 12.891000 # 1HT TIP3
88 30 2 -0.847600 14.114000 32.673000 1.248000 # 2OT TIP3
89 30 1 0.423800 13.273000 33.319000 1.043000 # 1HT TIP3
90 30 1 0.423800 14.672000 32.507000 0.338000 # 1HT TIP3
91 31 2 -0.847600 0.687000 2.736000 17.200001 # 2OT TIP3
92 31 1 0.423800 1.512000 2.511000 17.860001 # 1HT TIP3
93 31 1 0.423800 0.276000 3.701000 17.452999 # 1HT TIP3
94 32 2 -0.847600 8.670000 2.942000 9.092000 # 2OT TIP3
95 32 1 0.423800 7.647000 3.288000 9.074000 # 1HT TIP3
96 32 1 0.423800 8.805000 2.178000 8.342000 # 1HT TIP3
97 33 2 -0.847600 16.454000 20.292000 21.474001 # 2OT TIP3
98 33 1 0.423800 16.931999 20.882999 20.705999 # 1HT TIP3
99 33 1 0.423800 15.673000 19.691999 21.032000 # 1HT TIP3
100 34 2 -0.847600 10.454000 11.182000 30.537001 # 2OT TIP3
101 34 1 0.423800 10.507000 12.191000 30.917999 # 1HT TIP3
102 34 1 0.423800 10.840000 10.498000 31.277000 # 1HT TIP3
103 35 2 -0.847600 0.515000 33.519001 27.408001 # 2OT TIP3
104 35 1 0.423800 -0.005000 32.932999 28.150999 # 1HT TIP3
105 35 1 0.423800 -0.028000 34.435001 27.226999 # 1HT TIP3
106 36 2 -0.847600 27.282000 3.811000 28.395000 # 2OT TIP3
107 36 1 0.423800 27.174999 4.876000 28.250999 # 1HT TIP3
108 36 1 0.423800 26.966000 3.549000 29.393000 # 1HT TIP3
109 37 2 -0.847600 14.048000 1.228000 1.037000 # 2OT TIP3
110 37 1 0.423800 14.863000 0.537000 0.876000 # 1HT TIP3
111 37 1 0.423800 13.548000 1.419000 0.099000 # 1HT TIP3
112 38 2 -0.847600 20.908001 16.099001 8.373000 # 2OT TIP3
113 38 1 0.423800 20.010000 15.597000 8.043000 # 1HT TIP3
114 38 1 0.423800 21.617001 16.141001 7.560000 # 1HT TIP3
115 39 2 -0.847600 20.671000 21.164000 13.975000 # 2OT TIP3
116 39 1 0.423800 20.622999 21.917000 14.748000 # 1HT TIP3
117 39 1 0.423800 19.796000 21.236000 13.346000 # 1HT TIP3
118 40 2 -0.847600 21.457001 29.448000 16.482000 # 2OT TIP3
119 40 1 0.423800 20.613001 29.438999 17.155001 # 1HT TIP3
120 40 1 0.423800 21.114000 29.289000 15.471000 # 1HT TIP3
121 41 2 -0.847600 7.503000 32.981998 9.939000 # 2OT TIP3
122 41 1 0.423800 6.910000 32.264999 10.488000 # 1HT TIP3
123 41 1 0.423800 7.313000 33.973999 10.321000 # 1HT TIP3
124 42 2 -0.847600 15.906000 16.829000 0.844000 # 2OT TIP3
125 42 1 0.423800 16.150000 15.835000 0.498000 # 1HT TIP3
126 42 1 0.423800 15.715000 16.804001 1.906000 # 1HT TIP3
127 43 2 -0.847600 9.126000 8.507000 5.547000 # 2OT TIP3
128 43 1 0.423800 9.892000 7.746000 5.575000 # 1HT TIP3
129 43 1 0.423800 9.146000 9.003000 4.589000 # 1HT TIP3
130 44 2 -0.847600 31.900999 5.239000 27.566999 # 2OT TIP3
131 44 1 0.423800 31.997000 4.256000 27.129000 # 1HT TIP3
132 44 1 0.423800 31.980000 5.987000 26.792000 # 1HT TIP3
133 45 2 -0.847600 1.625000 7.681000 30.068001 # 2OT TIP3
134 45 1 0.423800 1.153000 6.770000 29.728001 # 1HT TIP3
135 45 1 0.423800 2.079000 7.513000 31.033001 # 1HT TIP3
136 46 2 -0.847600 7.677000 18.605000 12.157000 # 2OT TIP3
137 46 1 0.423800 8.142000 17.632999 12.240000 # 1HT TIP3
138 46 1 0.423800 7.001000 18.608999 11.315000 # 1HT TIP3
139 47 2 -0.847600 23.254999 5.246000 25.156000 # 2OT TIP3
140 47 1 0.423800 23.024000 4.211000 25.362000 # 1HT TIP3
141 47 1 0.423800 24.225000 5.311000 24.686001 # 1HT TIP3
142 48 2 -0.847600 32.709000 22.148001 15.269000 # 2OT TIP3
143 48 1 0.423800 33.463001 22.855000 14.955000 # 1HT TIP3
144 48 1 0.423800 32.400002 22.375000 16.278000 # 1HT TIP3
145 49 2 -0.847600 21.235001 15.453000 10.450000 # 2OT TIP3
146 49 1 0.423800 21.910000 16.073999 11.020000 # 1HT TIP3
147 49 1 0.423800 20.603001 14.895000 11.124000 # 1HT TIP3
148 50 2 -0.847600 0.695000 30.565001 2.542000 # 2OT TIP3
149 50 1 0.423800 1.727000 30.261999 2.647000 # 1HT TIP3
150 50 1 0.423800 0.326000 30.920000 3.493000 # 1HT TIP3
151 51 2 -0.847600 13.771000 16.010000 2.736000 # 2OT TIP3
152 51 1 0.423800 12.939000 16.698000 2.773000 # 1HT TIP3
153 51 1 0.423800 13.438000 15.027000 3.036000 # 1HT TIP3
154 52 2 -0.847600 32.821999 27.556999 4.556000 # 2OT TIP3
155 52 1 0.423800 33.624001 26.976999 4.123000 # 1HT TIP3
156 52 1 0.423800 32.109001 27.816000 3.787000 # 1HT TIP3
157 53 2 -0.847600 18.646000 26.309999 21.566999 # 2OT TIP3
158 53 1 0.423800 19.500999 25.674000 21.389000 # 1HT TIP3
159 53 1 0.423800 18.490000 26.951000 20.712999 # 1HT TIP3
160 54 2 -0.847600 11.481000 9.650000 13.237000 # 2OT TIP3
161 54 1 0.423800 10.880000 8.856000 12.819000 # 1HT TIP3
162 54 1 0.423800 11.362000 9.665000 14.310000 # 1HT TIP3
163 55 2 -0.847600 28.433001 28.438000 5.926000 # 2OT TIP3
164 55 1 0.423800 27.469999 28.003000 6.150000 # 1HT TIP3
165 55 1 0.423800 28.819000 28.927999 6.807000 # 1HT TIP3
166 56 2 -0.847600 29.476000 18.980000 17.163000 # 2OT TIP3
167 56 1 0.423800 30.461000 18.948000 16.721001 # 1HT TIP3
168 56 1 0.423800 28.787001 19.445000 16.474001 # 1HT TIP3
169 57 2 -0.847600 22.663000 3.260000 10.081000 # 2OT TIP3
170 57 1 0.423800 23.045000 2.934000 11.037000 # 1HT TIP3
171 57 1 0.423800 22.465000 2.399000 9.460000 # 1HT TIP3
172 58 2 -0.847600 34.915001 1.142000 19.660999 # 2OT TIP3
173 58 1 0.423800 35.535999 0.322000 19.330000 # 1HT TIP3
174 58 1 0.423800 35.535999 1.997000 19.884001 # 1HT TIP3
175 59 2 -0.847600 26.645000 15.497000 1.175000 # 2OT TIP3
176 59 1 0.423800 25.593000 15.741000 1.135000 # 1HT TIP3
177 59 1 0.423800 26.766001 14.488000 1.539000 # 1HT TIP3
178 60 2 -0.847600 29.643000 7.731000 14.656000 # 2OT TIP3
179 60 1 0.423800 29.862000 6.791000 14.170000 # 1HT TIP3
180 60 1 0.423800 29.961000 8.546000 14.023000 # 1HT TIP3
181 61 2 -0.847600 28.294001 24.159000 30.117001 # 2OT TIP3
182 61 1 0.423800 28.499001 25.218000 30.059000 # 1HT TIP3
183 61 1 0.423800 29.132999 23.607000 29.721001 # 1HT TIP3
184 62 2 -0.847600 17.135000 34.749001 35.445999 # 2OT TIP3
185 62 1 0.423800 17.948000 35.459999 35.490002 # 1HT TIP3
186 62 1 0.423800 17.017000 34.401001 34.431000 # 1HT TIP3
187 63 2 -0.847600 19.632000 29.961000 34.613998 # 2OT TIP3
188 63 1 0.423800 19.362000 29.402000 35.498001 # 1HT TIP3
189 63 1 0.423800 20.447001 30.631001 34.846001 # 1HT TIP3
190 64 2 -0.847600 32.201000 32.457001 19.141001 # 2OT TIP3
191 64 1 0.423800 31.667999 31.952000 19.934000 # 1HT TIP3
192 64 1 0.423800 33.182999 32.021999 19.034000 # 1HT TIP3
193 65 2 -0.847600 26.032000 18.796000 8.171000 # 2OT TIP3
194 65 1 0.423800 25.124001 18.809999 7.587000 # 1HT TIP3
195 65 1 0.423800 26.098000 17.863001 8.712000 # 1HT TIP3
196 66 2 -0.847600 4.578000 34.566002 2.670000 # 2OT TIP3
197 66 1 0.423800 4.594000 35.015999 1.688000 # 1HT TIP3
198 66 1 0.423800 4.534000 33.492001 2.573000 # 1HT TIP3
199 67 2 -0.847600 6.197000 0.721000 7.552000 # 2OT TIP3
200 67 1 0.423800 6.494000 -0.005000 6.809000 # 1HT TIP3
201 67 1 0.423800 5.897000 1.635000 7.062000 # 1HT TIP3
202 68 2 -0.847600 29.799000 9.024000 7.918000 # 2OT TIP3
203 68 1 0.423800 28.815001 9.437000 8.087000 # 1HT TIP3
204 68 1 0.423800 29.996000 8.985000 6.857000 # 1HT TIP3
205 69 2 -0.847600 12.901000 11.967000 14.894000 # 2OT TIP3
206 69 1 0.423800 13.855000 11.939000 14.389000 # 1HT TIP3
207 69 1 0.423800 12.758000 12.940000 15.340000 # 1HT TIP3
208 70 2 -0.847600 27.622000 13.066000 4.258000 # 2OT TIP3
209 70 1 0.423800 27.058001 12.209000 3.921000 # 1HT TIP3
210 70 1 0.423800 28.236000 13.434000 3.449000 # 1HT TIP3
211 71 2 -0.847600 22.268000 31.399000 8.007000 # 2OT TIP3
212 71 1 0.423800 21.927999 30.393999 7.802000 # 1HT TIP3
213 71 1 0.423800 22.495001 31.493999 9.058000 # 1HT TIP3
214 72 2 -0.847600 10.767000 0.229000 5.246000 # 2OT TIP3
215 72 1 0.423800 10.008000 0.929000 5.559000 # 1HT TIP3
216 72 1 0.423800 11.403000 -0.012000 6.085000 # 1HT TIP3
217 73 2 -0.847600 8.981000 26.295000 33.143002 # 2OT TIP3
218 73 1 0.423800 9.534000 25.575001 33.728001 # 1HT TIP3
219 73 1 0.423800 9.053000 26.039000 32.096001 # 1HT TIP3
220 74 2 -0.847600 27.362000 25.530001 1.760000 # 2OT TIP3
221 74 1 0.423800 27.622999 26.481001 1.320000 # 1HT TIP3
222 74 1 0.423800 28.167999 24.829000 1.609000 # 1HT TIP3
223 75 2 -0.847600 21.670000 33.622002 1.067000 # 2OT TIP3
224 75 1 0.423800 22.020000 34.583000 0.721000 # 1HT TIP3
225 75 1 0.423800 21.995001 33.465000 2.085000 # 1HT TIP3
226 76 2 -0.847600 1.917000 30.657000 25.332001 # 2OT TIP3
227 76 1 0.423800 1.039000 30.063999 25.544001 # 1HT TIP3
228 76 1 0.423800 1.935000 31.518999 25.981001 # 1HT TIP3
229 77 2 -0.847600 27.127001 9.150000 10.851000 # 2OT TIP3
230 77 1 0.423800 26.268999 9.729000 10.545000 # 1HT TIP3
231 77 1 0.423800 27.108000 8.189000 10.358000 # 1HT TIP3
232 78 2 -0.847600 34.020000 12.619000 6.748000 # 2OT TIP3
233 78 1 0.423800 33.458000 13.499000 6.470000 # 1HT TIP3
234 78 1 0.423800 33.423000 12.005000 7.405000 # 1HT TIP3
235 79 2 -0.847600 31.455999 21.400999 28.990999 # 2OT TIP3
236 79 1 0.423800 31.010000 21.889000 29.844999 # 1HT TIP3
237 79 1 0.423800 30.694000 21.200001 28.253000 # 1HT TIP3
238 80 2 -0.847600 3.650000 30.417000 5.073000 # 2OT TIP3
239 80 1 0.423800 3.084000 29.535999 4.809000 # 1HT TIP3
240 80 1 0.423800 3.020000 31.096001 5.629000 # 1HT TIP3
241 81 2 -0.847600 27.539000 2.250000 18.989000 # 2OT TIP3
242 81 1 0.423800 27.207001 3.043000 19.643999 # 1HT TIP3
243 81 1 0.423800 28.389999 2.588000 18.417000 # 1HT TIP3
244 82 2 -0.847600 16.351999 23.975000 17.309000 # 2OT TIP3
245 82 1 0.423800 15.774000 24.849001 17.046000 # 1HT TIP3
246 82 1 0.423800 16.382000 23.297001 16.469000 # 1HT TIP3
247 83 2 -0.847600 14.704000 14.117000 35.152000 # 2OT TIP3
248 83 1 0.423800 14.096000 13.316000 35.546001 # 1HT TIP3
249 83 1 0.423800 14.239000 14.517000 34.263000 # 1HT TIP3
250 84 2 -0.847600 7.441000 27.431000 16.947001 # 2OT TIP3
251 84 1 0.423800 7.124000 26.975000 17.874001 # 1HT TIP3
252 84 1 0.423800 7.565000 28.493000 17.093000 # 1HT TIP3
253 85 2 -0.847600 29.664000 25.382999 19.271000 # 2OT TIP3
254 85 1 0.423800 30.105000 26.302999 19.627001 # 1HT TIP3
255 85 1 0.423800 28.611000 25.372999 19.509001 # 1HT TIP3
256 86 2 -0.847600 17.767000 30.215000 30.683001 # 2OT TIP3
257 86 1 0.423800 17.212000 30.889000 30.046000 # 1HT TIP3
258 86 1 0.423800 18.010000 29.318001 30.132000 # 1HT TIP3
259 87 2 -0.847600 24.357000 17.525999 4.318000 # 2OT TIP3
260 87 1 0.423800 23.711000 17.934999 3.554000 # 1HT TIP3
261 87 1 0.423800 24.496000 18.254999 5.101000 # 1HT TIP3
262 88 2 -0.847600 17.658001 8.671000 19.524000 # 2OT TIP3
263 88 1 0.423800 17.410000 8.721000 20.573999 # 1HT TIP3
264 88 1 0.423800 17.089001 7.882000 19.056000 # 1HT TIP3
265 89 2 -0.847600 0.392000 22.086000 19.205999 # 2OT TIP3
266 89 1 0.423800 0.166000 21.186001 19.759001 # 1HT TIP3
267 89 1 0.423800 1.145000 22.653000 19.732000 # 1HT TIP3
268 90 2 -0.847600 11.310000 0.048000 9.775000 # 2OT TIP3
269 90 1 0.423800 12.175000 0.000000 9.129000 # 1HT TIP3
270 90 1 0.423800 11.627000 -0.001000 10.806000 # 1HT TIP3
271 91 2 -0.847600 5.690000 16.532000 21.049999 # 2OT TIP3
272 91 1 0.423800 6.696000 16.287001 20.743999 # 1HT TIP3
273 91 1 0.423800 5.443000 17.528000 20.715000 # 1HT TIP3
274 92 2 -0.847600 5.520000 13.964000 21.162001 # 2OT TIP3
275 92 1 0.423800 4.663000 13.306000 21.191000 # 1HT TIP3
276 92 1 0.423800 5.536000 14.492000 20.221001 # 1HT TIP3
277 93 2 -0.847600 24.006001 18.327999 11.975000 # 2OT TIP3
278 93 1 0.423800 23.743999 19.076000 12.708000 # 1HT TIP3
279 93 1 0.423800 24.627001 17.573999 12.436000 # 1HT TIP3
280 94 2 -0.847600 3.878000 34.390999 27.617001 # 2OT TIP3
281 94 1 0.423800 4.665000 33.813999 27.153999 # 1HT TIP3
282 94 1 0.423800 4.121000 35.442001 27.561001 # 1HT TIP3
283 95 2 -0.847600 22.802999 32.397999 19.652000 # 2OT TIP3
284 95 1 0.423800 23.740000 32.886002 19.427999 # 1HT TIP3
285 95 1 0.423800 22.504000 32.637001 20.662001 # 1HT TIP3
286 96 2 -0.847600 1.040000 31.176001 29.110001 # 2OT TIP3
287 96 1 0.423800 0.003000 30.881001 29.044001 # 1HT TIP3
288 96 1 0.423800 1.448000 31.283001 28.115999 # 1HT TIP3
289 97 2 -0.847600 10.819000 9.321000 29.388000 # 2OT TIP3
290 97 1 0.423800 11.403000 8.422000 29.252001 # 1HT TIP3
291 97 1 0.423800 10.349000 9.590000 28.452999 # 1HT TIP3
292 98 2 -0.847600 21.122000 35.035999 4.953000 # 2OT TIP3
293 98 1 0.423800 21.415001 34.994999 3.914000 # 1HT TIP3
294 98 1 0.423800 20.046000 35.075001 5.023000 # 1HT TIP3
295 99 2 -0.847600 12.984000 14.293000 6.792000 # 2OT TIP3
296 99 1 0.423800 13.251000 13.626000 7.598000 # 1HT TIP3
297 99 1 0.423800 11.957000 14.121000 6.507000 # 1HT TIP3
298 100 2 -0.847600 0.298000 13.332000 1.710000 # 2OT TIP3
299 100 1 0.423800 0.002000 12.413000 2.195000 # 1HT TIP3
300 100 1 0.423800 1.314000 13.241000 1.356000 # 1HT TIP3
301 101 2 -0.847600 6.745000 9.017000 15.622000 # 2OT TIP3
302 101 1 0.423800 5.778000 9.262000 16.035999 # 1HT TIP3
303 101 1 0.423800 7.365000 8.578000 16.389000 # 1HT TIP3
304 102 2 -0.847600 26.757000 1.064000 27.691999 # 2OT TIP3
305 102 1 0.423800 26.143999 1.545000 26.945000 # 1HT TIP3
306 102 1 0.423800 26.778000 -0.000000 27.511000 # 1HT TIP3
307 103 2 -0.847600 22.610001 5.551000 19.920000 # 2OT TIP3
308 103 1 0.423800 21.687000 5.164000 20.325001 # 1HT TIP3
309 103 1 0.423800 22.450001 5.874000 18.903000 # 1HT TIP3
310 104 2 -0.847600 26.183001 26.766001 20.021999 # 2OT TIP3
311 104 1 0.423800 26.473000 26.822001 21.061001 # 1HT TIP3
312 104 1 0.423800 25.282000 27.340000 19.868000 # 1HT TIP3
313 105 2 -0.847600 30.299000 7.597000 9.768000 # 2OT TIP3
314 105 1 0.423800 30.871000 8.508000 9.863000 # 1HT TIP3
315 105 1 0.423800 30.798000 6.929000 9.082000 # 1HT TIP3
316 106 2 -0.847600 26.164000 24.687000 28.142000 # 2OT TIP3
317 106 1 0.423800 26.379000 23.934999 28.886999 # 1HT TIP3
318 106 1 0.423800 25.542000 25.455999 28.576000 # 1HT TIP3
319 107 2 -0.847600 22.709000 22.799999 22.500999 # 2OT TIP3
320 107 1 0.423800 23.150000 23.403999 23.280001 # 1HT TIP3
321 107 1 0.423800 22.580000 23.396999 21.611000 # 1HT TIP3
322 108 2 -0.847600 32.585999 31.007999 24.207001 # 2OT TIP3
323 108 1 0.423800 33.630001 30.811001 24.402000 # 1HT TIP3
324 108 1 0.423800 32.063999 30.075001 24.061001 # 1HT TIP3
325 109 2 -0.847600 12.102000 26.332001 0.701000 # 2OT TIP3
326 109 1 0.423800 12.504000 27.212000 0.221000 # 1HT TIP3
327 109 1 0.423800 11.488000 25.787001 -0.001000 # 1HT TIP3
328 110 2 -0.847600 4.189000 14.296000 24.091999 # 2OT TIP3
329 110 1 0.423800 3.211000 13.929000 23.816000 # 1HT TIP3
330 110 1 0.423800 4.830000 14.302000 23.223000 # 1HT TIP3
331 111 2 -0.847600 14.795000 24.349001 14.671000 # 2OT TIP3
332 111 1 0.423800 15.866000 24.424999 14.551000 # 1HT TIP3
333 111 1 0.423800 14.431000 25.209999 15.211000 # 1HT TIP3
334 112 2 -0.847600 31.896000 33.446999 23.542999 # 2OT TIP3
335 112 1 0.423800 32.737000 33.199001 24.174999 # 1HT TIP3
336 112 1 0.423800 31.997000 32.939999 22.594999 # 1HT TIP3
337 113 2 -0.847600 6.734000 22.924000 3.324000 # 2OT TIP3
338 113 1 0.423800 6.396000 21.924000 3.552000 # 1HT TIP3
339 113 1 0.423800 6.918000 23.009001 2.263000 # 1HT TIP3
340 114 2 -0.847600 18.257999 30.121000 15.325000 # 2OT TIP3
341 114 1 0.423800 18.964001 29.367001 15.011000 # 1HT TIP3
342 114 1 0.423800 17.719999 30.490999 14.466000 # 1HT TIP3
343 115 2 -0.847600 34.816002 15.547000 26.921000 # 2OT TIP3
344 115 1 0.423800 35.068001 16.573000 27.149000 # 1HT TIP3
345 115 1 0.423800 33.751999 15.467000 26.753000 # 1HT TIP3
346 116 2 -0.847600 29.120001 8.048000 17.524000 # 2OT TIP3
347 116 1 0.423800 28.737000 8.258000 18.511999 # 1HT TIP3
348 116 1 0.423800 29.327999 8.976000 17.014000 # 1HT TIP3
349 117 2 -0.847600 1.625000 13.827000 11.733000 # 2OT TIP3
350 117 1 0.423800 0.850000 14.532000 11.471000 # 1HT TIP3
351 117 1 0.423800 1.771000 13.133000 10.919000 # 1HT TIP3
352 118 2 -0.847600 17.895000 22.368999 14.556000 # 2OT TIP3
353 118 1 0.423800 18.528000 22.108999 15.392000 # 1HT TIP3
354 118 1 0.423800 17.700001 21.488001 13.964000 # 1HT TIP3
355 119 2 -0.847600 33.377998 25.059999 33.245998 # 2OT TIP3
356 119 1 0.423800 33.471001 25.996000 33.777000 # 1HT TIP3
357 119 1 0.423800 34.030998 24.326000 33.694000 # 1HT TIP3
358 120 2 -0.847600 34.181000 11.673000 23.743999 # 2OT TIP3
359 120 1 0.423800 33.426998 11.505000 24.499001 # 1HT TIP3
360 120 1 0.423800 33.845001 11.267000 22.802000 # 1HT TIP3
361 121 2 -0.847600 34.007999 27.582001 13.657000 # 2OT TIP3
362 121 1 0.423800 34.678001 27.003000 13.038000 # 1HT TIP3
363 121 1 0.423800 34.108002 28.629000 13.413000 # 1HT TIP3
364 122 2 -0.847600 29.757999 1.639000 19.851000 # 2OT TIP3
365 122 1 0.423800 30.104000 0.624000 19.981001 # 1HT TIP3
366 122 1 0.423800 29.486000 2.052000 20.809999 # 1HT TIP3
367 123 2 -0.847600 28.618000 28.414000 19.219999 # 2OT TIP3
368 123 1 0.423800 29.493000 28.375000 18.589001 # 1HT TIP3
369 123 1 0.423800 28.080000 27.481001 19.148001 # 1HT TIP3
370 124 2 -0.847600 1.990000 25.344999 1.113000 # 2OT TIP3
371 124 1 0.423800 1.375000 25.158001 0.245000 # 1HT TIP3
372 124 1 0.423800 2.310000 24.406000 1.538000 # 1HT TIP3
373 125 2 -0.847600 9.536000 10.335000 10.063000 # 2OT TIP3
374 125 1 0.423800 9.274000 9.383000 10.501000 # 1HT TIP3
375 125 1 0.423800 10.138000 10.172000 9.182000 # 1HT TIP3
376 126 2 -0.847600 23.327000 30.834999 33.381001 # 2OT TIP3
377 126 1 0.423800 22.478001 30.899000 34.047001 # 1HT TIP3
378 126 1 0.423800 23.488001 29.804001 33.103001 # 1HT TIP3
379 127 2 -0.847600 17.784000 3.166000 33.433998 # 2OT TIP3
380 127 1 0.423800 18.254000 2.219000 33.209999 # 1HT TIP3
381 127 1 0.423800 17.893999 3.830000 32.590000 # 1HT TIP3
382 128 2 -0.847600 3.628000 32.681000 35.205002 # 2OT TIP3
383 128 1 0.423800 3.490000 32.229000 34.234001 # 1HT TIP3
384 128 1 0.423800 4.282000 33.535000 35.115002 # 1HT TIP3
385 129 2 -0.847600 11.261000 19.242001 19.875000 # 2OT TIP3
386 129 1 0.423800 10.458000 19.378000 19.166000 # 1HT TIP3
387 129 1 0.423800 11.198000 20.000999 20.641001 # 1HT TIP3
388 130 2 -0.847600 19.437000 21.403999 6.885000 # 2OT TIP3
389 130 1 0.423800 18.743000 21.691000 7.661000 # 1HT TIP3
390 130 1 0.423800 20.443001 21.423000 7.277000 # 1HT TIP3
391 131 2 -0.847600 0.181000 27.462999 30.964001 # 2OT TIP3
392 131 1 0.423800 0.000000 26.444000 31.271000 # 1HT TIP3
393 131 1 0.423800 -0.000000 28.127001 31.796000 # 1HT TIP3
394 132 2 -0.847600 25.362000 8.101000 35.081001 # 2OT TIP3
395 132 1 0.423800 26.236000 8.678000 34.817001 # 1HT TIP3
396 132 1 0.423800 24.669001 8.099000 34.252998 # 1HT TIP3
397 133 2 -0.847600 9.655000 34.445000 31.891001 # 2OT TIP3
398 133 1 0.423800 10.190000 34.956001 32.678001 # 1HT TIP3
399 133 1 0.423800 9.044000 33.664001 32.319000 # 1HT TIP3
400 134 2 -0.847600 13.196000 2.142000 3.504000 # 2OT TIP3
401 134 1 0.423800 13.685000 1.182000 3.437000 # 1HT TIP3
402 134 1 0.423800 12.147000 2.030000 3.274000 # 1HT TIP3
403 135 2 -0.847600 2.651000 6.153000 6.549000 # 2OT TIP3
404 135 1 0.423800 1.766000 6.461000 6.012000 # 1HT TIP3
405 135 1 0.423800 3.490000 6.117000 5.869000 # 1HT TIP3
406 136 2 -0.847600 34.293999 14.668000 29.355000 # 2OT TIP3
407 136 1 0.423800 33.731998 14.198000 28.561001 # 1HT TIP3
408 136 1 0.423800 34.499001 15.695000 29.093000 # 1HT TIP3
409 137 2 -0.847600 20.124001 27.149000 22.962999 # 2OT TIP3
410 137 1 0.423800 19.562000 26.575001 23.684999 # 1HT TIP3
411 137 1 0.423800 20.009001 28.202000 23.173000 # 1HT TIP3
412 138 2 -0.847600 12.139000 0.020000 2.388000 # 2OT TIP3
413 138 1 0.423800 11.733000 0.105000 1.391000 # 1HT TIP3
414 138 1 0.423800 11.331000 -0.006000 3.104000 # 1HT TIP3
415 139 2 -0.847600 3.091000 3.594000 6.697000 # 2OT TIP3
416 139 1 0.423800 2.448000 2.939000 6.127000 # 1HT TIP3
417 139 1 0.423800 4.097000 3.538000 6.310000 # 1HT TIP3
418 140 2 -0.847600 31.070000 19.892000 9.052000 # 2OT TIP3
419 140 1 0.423800 30.233999 20.172001 9.676000 # 1HT TIP3
420 140 1 0.423800 31.107000 18.816999 8.961000 # 1HT TIP3
421 141 2 -0.847600 4.191000 22.110001 17.978001 # 2OT TIP3
422 141 1 0.423800 5.257000 22.267000 17.915001 # 1HT TIP3
423 141 1 0.423800 3.990000 21.233999 18.577000 # 1HT TIP3
424 142 2 -0.847600 17.893999 9.916000 27.511000 # 2OT TIP3
425 142 1 0.423800 18.691999 10.106000 26.808001 # 1HT TIP3
426 142 1 0.423800 18.267000 9.315000 28.326000 # 1HT TIP3
427 143 2 -0.847600 31.281000 12.298000 26.165001 # 2OT TIP3
428 143 1 0.423800 32.146000 12.248000 26.809999 # 1HT TIP3
429 143 1 0.423800 30.489000 11.691000 26.577999 # 1HT TIP3
430 144 2 -0.847600 18.723000 25.468000 31.760000 # 2OT TIP3
431 144 1 0.423800 19.482000 24.768000 32.077999 # 1HT TIP3
432 144 1 0.423800 18.653999 25.459000 30.683001 # 1HT TIP3
433 145 2 -0.847600 13.683000 25.652000 25.212000 # 2OT TIP3
434 145 1 0.423800 13.040000 26.334999 24.676001 # 1HT TIP3
435 145 1 0.423800 14.559000 25.438999 24.617001 # 1HT TIP3
436 146 2 -0.847600 10.200000 13.709000 12.625000 # 2OT TIP3
437 146 1 0.423800 10.490000 12.786000 13.106000 # 1HT TIP3
438 146 1 0.423800 10.209000 14.511000 13.348000 # 1HT TIP3
439 147 2 -0.847600 2.764000 34.912998 7.198000 # 2OT TIP3
440 147 1 0.423800 3.358000 35.535000 7.852000 # 1HT TIP3
441 147 1 0.423800 2.229000 35.535000 6.497000 # 1HT TIP3
442 148 2 -0.847600 14.520000 28.295000 25.514999 # 2OT TIP3
443 148 1 0.423800 13.779000 27.819000 26.139999 # 1HT TIP3
444 148 1 0.423800 15.353000 28.613001 26.122000 # 1HT TIP3
445 149 2 -0.847600 26.770000 35.548000 24.252001 # 2OT TIP3
446 149 1 0.423800 27.181999 35.542999 23.254000 # 1HT TIP3
447 149 1 0.423800 26.934999 34.587002 24.715000 # 1HT TIP3
448 150 2 -0.847600 13.022000 31.806999 33.749001 # 2OT TIP3
449 150 1 0.423800 14.004000 31.631001 34.162998 # 1HT TIP3
450 150 1 0.423800 12.325000 32.006001 34.549000 # 1HT TIP3
451 151 2 -0.847600 11.606000 29.632999 20.200001 # 2OT TIP3
452 151 1 0.423800 12.082000 30.125000 21.035000 # 1HT TIP3
453 151 1 0.423800 11.331000 30.368000 19.458000 # 1HT TIP3
454 152 2 -0.847600 6.568000 16.525999 31.914000 # 2OT TIP3
455 152 1 0.423800 6.573000 15.501000 31.573999 # 1HT TIP3
456 152 1 0.423800 7.556000 16.796000 32.257999 # 1HT TIP3
457 153 2 -0.847600 28.646000 13.302000 23.341000 # 2OT TIP3
458 153 1 0.423800 28.542000 12.370000 23.877001 # 1HT TIP3
459 153 1 0.423800 27.808001 13.944000 23.569000 # 1HT TIP3
460 154 2 -0.847600 9.118000 24.132999 19.844000 # 2OT TIP3
461 154 1 0.423800 8.695000 24.014000 18.857000 # 1HT TIP3
462 154 1 0.423800 9.576000 23.205000 20.153000 # 1HT TIP3
463 155 2 -0.847600 23.915001 21.169001 11.946000 # 2OT TIP3
464 155 1 0.423800 24.124001 21.323999 10.898000 # 1HT TIP3
465 155 1 0.423800 23.969000 22.114000 12.467000 # 1HT TIP3
466 156 2 -0.847600 27.121000 27.995001 35.471001 # 2OT TIP3
467 156 1 0.423800 27.577000 27.186001 34.918999 # 1HT TIP3
468 156 1 0.423800 26.056000 27.830000 35.536999 # 1HT TIP3
469 157 2 -0.847600 1.983000 4.575000 15.192000 # 2OT TIP3
470 157 1 0.423800 1.981000 3.694000 14.567000 # 1HT TIP3
471 157 1 0.423800 2.325000 4.314000 16.181999 # 1HT TIP3
472 158 2 -0.847600 21.832001 15.806000 32.407001 # 2OT TIP3
473 158 1 0.423800 21.113001 16.153000 33.134998 # 1HT TIP3
474 158 1 0.423800 22.830999 15.940000 32.793999 # 1HT TIP3
475 159 2 -0.847600 8.594000 3.385000 14.845000 # 2OT TIP3
476 159 1 0.423800 9.002000 3.425000 13.846000 # 1HT TIP3
477 159 1 0.423800 7.905000 4.205000 14.986000 # 1HT TIP3
478 160 2 -0.847600 14.905000 16.542999 18.201000 # 2OT TIP3
479 160 1 0.423800 15.837000 16.665001 17.670000 # 1HT TIP3
480 160 1 0.423800 14.491000 15.569000 17.983000 # 1HT TIP3
481 161 2 -0.847600 34.674999 0.323000 25.091000 # 2OT TIP3
482 161 1 0.423800 33.681999 -0.004000 25.363001 # 1HT TIP3
483 161 1 0.423800 35.141998 0.801000 25.938999 # 1HT TIP3
484 162 2 -0.847600 34.220001 2.562000 33.679001 # 2OT TIP3
485 162 1 0.423800 34.394001 1.832000 32.902000 # 1HT TIP3
486 162 1 0.423800 34.083000 2.057000 34.623001 # 1HT TIP3
487 163 2 -0.847600 26.433001 1.121000 3.472000 # 2OT TIP3
488 163 1 0.423800 26.656000 1.973000 2.846000 # 1HT TIP3
489 163 1 0.423800 26.997999 1.189000 4.389000 # 1HT TIP3
490 164 2 -0.847600 20.096001 29.781000 1.879000 # 2OT TIP3
491 164 1 0.423800 19.016001 29.795000 1.881000 # 1HT TIP3
492 164 1 0.423800 20.451000 29.570999 0.882000 # 1HT TIP3
493 165 2 -0.847600 34.912998 0.791000 28.163000 # 2OT TIP3
494 165 1 0.423800 35.549999 -0.049000 27.926001 # 1HT TIP3
495 165 1 0.423800 35.497002 1.699000 28.153000 # 1HT TIP3
496 166 2 -0.847600 1.024000 25.605000 22.667999 # 2OT TIP3
497 166 1 0.423800 0.144000 26.177000 22.926001 # 1HT TIP3
498 166 1 0.423800 1.726000 25.636999 23.487000 # 1HT TIP3
499 167 2 -0.847600 4.326000 2.378000 8.411000 # 2OT TIP3
500 167 1 0.423800 4.814000 1.620000 9.006000 # 1HT TIP3
501 167 1 0.423800 3.475000 2.766000 8.949000 # 1HT TIP3
502 168 2 -0.847600 21.277000 9.752000 25.427999 # 2OT TIP3
503 168 1 0.423800 22.267000 9.374000 25.212999 # 1HT TIP3