LAMMPS data file. CGCMM style. atom_style full generated by VMD/TopoTools v1.7 on Sat Jan 28 17:33:55 IST 2023
 4500 atoms
 3000 bonds
 1500 angles
 0 dihedrals
 0 impropers
 2 atom types
 1 bond types
 1 angle types
 0 dihedral types
 0 improper types
  -0.0140 36.1620  xlo xhi
  -0.0260 36.1940  ylo yhi
  -0.0080 36.1630  zlo zhi

# Pair Coeffs
#
# 1  1HT
# 2  2OT

# Bond Coeffs
#
# 1  1HT-2OT

# Angle Coeffs
#
# 1  1HT-2OT-1HT

 Masses

 1 1.007940 # 1HT
 2 15.999400 # 2OT

 Atoms # full

1 1 2 -0.847600 27.920000 16.009001 7.354000 # 2OT SPC
2 1 1 0.423800 27.518000 15.072000 6.998000 # 1HT SPC
3 1 1 0.423800 27.464001 16.261000 8.300000 # 1HT SPC
4 2 2 -0.847600 11.504000 17.708000 14.537000 # 2OT SPC
5 2 1 0.423800 10.823000 17.841999 13.710000 # 1HT SPC
6 2 1 0.423800 11.203000 18.341000 15.358000 # 1HT SPC
7 3 2 -0.847600 18.570000 0.036000 15.826000 # 2OT SPC
8 3 1 0.423800 18.544001 1.065000 16.150999 # 1HT SPC
9 3 1 0.423800 18.677999 -0.000000 14.752000 # 1HT SPC
10 4 2 -0.847600 28.556000 6.683000 16.812000 # 2OT SPC
11 4 1 0.423800 29.539000 6.381000 16.481001 # 1HT SPC
12 4 1 0.423800 27.917000 6.830000 15.954000 # 1HT SPC
13 5 2 -0.847600 25.349001 11.181000 35.355000 # 2OT SPC
14 5 1 0.423800 25.235001 10.515000 34.513000 # 1HT SPC
15 5 1 0.423800 26.353001 11.103000 35.743000 # 1HT SPC
16 6 2 -0.847600 11.246000 33.900002 1.259000 # 2OT SPC
17 6 1 0.423800 11.453000 34.367001 2.211000 # 1HT SPC
18 6 1 0.423800 11.248000 32.827000 1.376000 # 1HT SPC
19 7 2 -0.847600 17.975000 32.539001 10.394000 # 2OT SPC
20 7 1 0.423800 18.569000 32.103001 9.604000 # 1HT SPC
21 7 1 0.423800 17.356001 33.325001 9.987000 # 1HT SPC
22 8 2 -0.847600 35.422001 25.450001 26.569000 # 2OT SPC
23 8 1 0.423800 34.583000 24.851000 26.247999 # 1HT SPC
24 8 1 0.423800 36.146999 25.511000 25.771999 # 1HT SPC
25 9 2 -0.847600 21.562000 18.795000 35.527000 # 2OT SPC
26 9 1 0.423800 21.223000 18.740000 34.502998 # 1HT SPC
27 9 1 0.423800 20.934999 18.173000 36.147999 # 1HT SPC
28 10 2 -0.847600 33.201000 33.695999 32.766998 # 2OT SPC
29 10 1 0.423800 33.453999 34.729000 32.583000 # 1HT SPC
30 10 1 0.423800 34.084000 33.158001 33.076000 # 1HT SPC
31 11 2 -0.847600 3.840000 15.044000 15.941000 # 2OT SPC
32 11 1 0.423800 3.335000 14.993000 14.987000 # 1HT SPC
33 11 1 0.423800 4.626000 14.304000 15.972000 # 1HT SPC
34 12 2 -0.847600 11.064000 16.632000 0.734000 # 2OT SPC
35 12 1 0.423800 12.088000 16.514999 0.412000 # 1HT SPC
36 12 1 0.423800 11.015000 16.563000 1.811000 # 1HT SPC
37 13 2 -0.847600 13.345000 25.844000 5.041000 # 2OT SPC
38 13 1 0.423800 13.712000 25.719999 6.050000 # 1HT SPC
39 13 1 0.423800 13.743000 25.061001 4.414000 # 1HT SPC
40 14 2 -0.847600 32.675999 23.556999 13.330000 # 2OT SPC
41 14 1 0.423800 32.284000 22.937000 12.537000 # 1HT SPC
42 14 1 0.423800 32.089001 24.459999 13.404000 # 1HT SPC
43 15 2 -0.847600 11.422000 26.291000 35.365002 # 2OT SPC
44 15 1 0.423800 12.379000 25.792999 35.422001 # 1HT SPC
45 15 1 0.423800 10.777000 25.922001 36.147999 # 1HT SPC
46 16 2 -0.847600 7.991000 5.029000 28.826000 # 2OT SPC
47 16 1 0.423800 8.091000 4.267000 28.066999 # 1HT SPC
48 16 1 0.423800 7.037000 4.923000 29.319000 # 1HT SPC
49 17 2 -0.847600 24.386000 8.277000 15.288000 # 2OT SPC
50 17 1 0.423800 24.688999 9.286000 15.524000 # 1HT SPC
51 17 1 0.423800 23.466999 8.046000 15.805000 # 1HT SPC
52 18 2 -0.847600 11.833000 8.284000 26.976000 # 2OT SPC
53 18 1 0.423800 12.014000 7.497000 27.693001 # 1HT SPC
54 18 1 0.423800 10.787000 8.299000 26.712999 # 1HT SPC
55 19 2 -0.847600 34.301998 20.136000 14.584000 # 2OT SPC
56 19 1 0.423800 33.659000 20.691000 13.916000 # 1HT SPC
57 19 1 0.423800 34.327999 20.625999 15.546000 # 1HT SPC
58 20 2 -0.847600 32.344002 31.084999 32.321999 # 2OT SPC
59 20 1 0.423800 31.756001 31.937000 32.627998 # 1HT SPC
60 20 1 0.423800 33.289001 31.423000 31.924999 # 1HT SPC
61 21 2 -0.847600 19.257999 18.290001 27.298000 # 2OT SPC
62 21 1 0.423800 20.271000 18.052999 27.587999 # 1HT SPC
63 21 1 0.423800 18.587999 17.534000 27.680000 # 1HT SPC
64 22 2 -0.847600 1.499000 21.548000 23.927000 # 2OT SPC
65 22 1 0.423800 2.145000 21.516001 24.791000 # 1HT SPC
66 22 1 0.423800 2.095000 21.667000 23.035000 # 1HT SPC
67 23 2 -0.847600 23.743999 3.177000 4.392000 # 2OT SPC
68 23 1 0.423800 24.806000 3.053000 4.542000 # 1HT SPC
69 23 1 0.423800 23.527000 3.184000 3.335000 # 1HT SPC
70 24 2 -0.847600 9.023000 36.018002 26.639999 # 2OT SPC
71 24 1 0.423800 8.188000 35.792000 25.992001 # 1HT SPC
72 24 1 0.423800 8.668000 36.153999 27.650000 # 1HT SPC
73 25 2 -0.847600 2.476000 0.535000 5.332000 # 2OT SPC
74 25 1 0.423800 1.425000 0.753000 5.457000 # 1HT SPC
75 25 1 0.423800 2.955000 0.507000 6.299000 # 1HT SPC
76 26 2 -0.847600 21.179001 25.326000 17.316000 # 2OT SPC
77 26 1 0.423800 21.839001 25.424999 16.466000 # 1HT SPC
78 26 1 0.423800 20.627001 26.243999 17.452000 # 1HT SPC
79 27 2 -0.847600 0.485000 33.436001 31.649000 # 2OT SPC
80 27 1 0.423800 -0.000000 32.483002 31.497999 # 1HT SPC
81 27 1 0.423800 0.978000 33.737000 30.736000 # 1HT SPC
82 28 2 -0.847600 22.903999 14.111000 30.297001 # 2OT SPC
83 28 1 0.423800 22.774000 15.153000 30.045000 # 1HT SPC
84 28 1 0.423800 22.615999 13.499000 29.455000 # 1HT SPC
85 29 2 -0.847600 8.923000 32.439999 12.063000 # 2OT SPC
86 29 1 0.423800 8.178000 31.684999 11.858000 # 1HT SPC
87 29 1 0.423800 9.162000 32.433998 13.116000 # 1HT SPC
88 30 2 -0.847600 14.309000 33.317001 1.351000 # 2OT SPC
89 30 1 0.423800 13.425000 33.875999 1.082000 # 1HT SPC
90 30 1 0.423800 14.876000 33.090000 0.460000 # 1HT SPC
91 31 2 -0.847600 0.749000 2.814000 17.483999 # 2OT SPC
92 31 1 0.423800 1.562000 2.579000 18.155001 # 1HT SPC
93 31 1 0.423800 0.349000 3.786000 17.729000 # 1HT SPC
94 32 2 -0.847600 8.785000 2.934000 9.247000 # 2OT SPC
95 32 1 0.423800 7.843000 3.462000 9.236000 # 1HT SPC
96 32 1 0.423800 8.740000 2.105000 8.557000 # 1HT SPC
97 33 2 -0.847600 16.833000 20.611000 21.815001 # 2OT SPC
98 33 1 0.423800 17.201000 21.268999 21.041000 # 1HT SPC
99 33 1 0.423800 16.122999 19.917000 21.389999 # 1HT SPC
100 34 2 -0.847600 10.650000 11.141000 31.038000 # 2OT SPC
101 34 1 0.423800 10.248000 12.126000 31.219999 # 1HT SPC
102 34 1 0.423800 11.115000 10.769000 31.938999 # 1HT SPC
103 35 2 -0.847600 0.573000 33.981998 27.972000 # 2OT SPC
104 35 1 0.423800 0.086000 33.417000 28.753000 # 1HT SPC
105 35 1 0.423800 -0.014000 34.858002 27.742001 # 1HT SPC
106 36 2 -0.847600 27.794001 3.968000 28.782000 # 2OT SPC
107 36 1 0.423800 27.729000 5.039000 28.655001 # 1HT SPC
108 36 1 0.423800 27.434999 3.699000 29.764000 # 1HT SPC
109 37 2 -0.847600 14.281000 1.238000 1.115000 # 2OT SPC
110 37 1 0.423800 15.101000 0.555000 0.949000 # 1HT SPC
111 37 1 0.423800 13.781000 1.435000 0.178000 # 1HT SPC
112 38 2 -0.847600 21.476999 16.273001 8.523000 # 2OT SPC
113 38 1 0.423800 20.702999 15.670000 8.070000 # 1HT SPC
114 38 1 0.423800 22.222000 16.518000 7.781000 # 1HT SPC
115 39 2 -0.847600 20.929001 21.561001 14.257000 # 2OT SPC
116 39 1 0.423800 20.989000 22.523001 14.744000 # 1HT SPC
117 39 1 0.423800 20.054001 21.530001 13.626000 # 1HT SPC
118 40 2 -0.847600 21.941000 30.306999 16.808001 # 2OT SPC
119 40 1 0.423800 21.139000 29.931000 17.426001 # 1HT SPC
120 40 1 0.423800 21.674999 30.197001 15.767000 # 1HT SPC
121 41 2 -0.847600 7.528000 33.363998 10.110000 # 2OT SPC
122 41 1 0.423800 6.751000 32.834999 10.642000 # 1HT SPC
123 41 1 0.423800 7.485000 34.412998 10.360000 # 1HT SPC
124 42 2 -0.847600 16.158001 17.155001 0.926000 # 2OT SPC
125 42 1 0.423800 16.353001 16.132999 0.637000 # 1HT SPC
126 42 1 0.423800 15.962000 17.197001 1.987000 # 1HT SPC
127 43 2 -0.847600 9.199000 8.681000 5.587000 # 2OT SPC
128 43 1 0.423800 9.872000 7.836000 5.566000 # 1HT SPC
129 43 1 0.423800 9.256000 9.209000 4.647000 # 1HT SPC
130 44 2 -0.847600 32.465000 5.407000 28.115000 # 2OT SPC
131 44 1 0.423800 32.588001 4.437000 27.656000 # 1HT SPC
132 44 1 0.423800 32.505001 6.173000 27.355000 # 1HT SPC
133 45 2 -0.847600 1.701000 7.872000 30.607000 # 2OT SPC
134 45 1 0.423800 1.324000 6.930000 30.236000 # 1HT SPC
135 45 1 0.423800 2.106000 7.733000 31.598000 # 1HT SPC
136 46 2 -0.847600 7.662000 18.891001 11.963000 # 2OT SPC
137 46 1 0.423800 8.167000 17.959000 12.171000 # 1HT SPC
138 46 1 0.423800 6.985000 18.757000 11.133000 # 1HT SPC
139 47 2 -0.847600 23.712999 5.230000 25.584999 # 2OT SPC
140 47 1 0.423800 23.534000 4.199000 25.851000 # 1HT SPC
141 47 1 0.423800 24.671000 5.314000 25.094000 # 1HT SPC
142 48 2 -0.847600 33.095001 22.448000 15.484000 # 2OT SPC
143 48 1 0.423800 33.852001 23.138000 15.140000 # 1HT SPC
144 48 1 0.423800 32.735001 22.761999 16.452999 # 1HT SPC
145 49 2 -0.847600 21.780001 15.751000 10.636000 # 2OT SPC
146 49 1 0.423800 22.504000 16.215000 11.289000 # 1HT SPC
147 49 1 0.423800 20.990999 15.311000 11.227000 # 1HT SPC
148 50 2 -0.847600 0.739000 31.097000 2.606000 # 2OT SPC
149 50 1 0.423800 1.748000 30.729000 2.725000 # 1HT SPC
150 50 1 0.423800 0.390000 31.499001 3.545000 # 1HT SPC
151 51 2 -0.847600 14.304000 16.183001 3.034000 # 2OT SPC
152 51 1 0.423800 13.608000 16.983999 2.832000 # 1HT SPC
153 51 1 0.423800 13.761000 15.305000 3.350000 # 1HT SPC
154 52 2 -0.847600 33.213001 28.027000 4.526000 # 2OT SPC
155 52 1 0.423800 33.971001 27.362000 4.137000 # 1HT SPC
156 52 1 0.423800 32.592999 28.379000 3.716000 # 1HT SPC
157 53 2 -0.847600 19.087000 26.886999 21.952000 # 2OT SPC
158 53 1 0.423800 19.922001 26.229000 21.761999 # 1HT SPC
159 53 1 0.423800 18.934999 27.532000 21.100000 # 1HT SPC
160 54 2 -0.847600 11.761000 9.656000 13.779000 # 2OT SPC
161 54 1 0.423800 11.178000 8.837000 13.383000 # 1HT SPC
162 54 1 0.423800 11.638000 9.701000 14.850000 # 1HT SPC
163 55 2 -0.847600 28.903000 28.950001 6.037000 # 2OT SPC
164 55 1 0.423800 27.945999 28.502001 6.259000 # 1HT SPC
165 55 1 0.423800 29.282000 29.445999 6.919000 # 1HT SPC
166 56 2 -0.847600 29.773001 19.570000 17.833000 # 2OT SPC
167 56 1 0.423800 30.687000 20.121000 17.666000 # 1HT SPC
168 56 1 0.423800 29.224001 19.493000 16.907000 # 1HT SPC
169 57 2 -0.847600 23.034000 3.307000 10.267000 # 2OT SPC
170 57 1 0.423800 23.523001 3.023000 11.187000 # 1HT SPC
171 57 1 0.423800 22.670000 2.424000 9.764000 # 1HT SPC
172 58 2 -0.847600 35.527000 1.156000 20.021999 # 2OT SPC
173 58 1 0.423800 36.147999 0.337000 19.688999 # 1HT SPC
174 58 1 0.423800 36.147999 2.013000 20.239000 # 1HT SPC
175 59 2 -0.847600 27.045000 15.742000 1.193000 # 2OT SPC
176 59 1 0.423800 25.983999 15.943000 1.185000 # 1HT SPC
177 59 1 0.423800 27.216999 14.734000 1.540000 # 1HT SPC
178 60 2 -0.847600 29.979000 7.895000 14.957000 # 2OT SPC
179 60 1 0.423800 30.285000 6.964000 14.502000 # 1HT SPC
180 60 1 0.423800 30.218000 8.714000 14.295000 # 1HT SPC
181 61 2 -0.847600 28.863001 24.583000 30.618999 # 2OT SPC
182 61 1 0.423800 29.113001 25.618999 30.447001 # 1HT SPC
183 61 1 0.423800 29.667000 23.955000 30.267000 # 1HT SPC
184 62 2 -0.847600 17.414000 35.261002 36.000000 # 2OT SPC
185 62 1 0.423800 18.111000 36.085999 35.992001 # 1HT SPC
186 62 1 0.423800 17.268000 34.903000 34.992001 # 1HT SPC
187 63 2 -0.847600 19.827000 30.360001 34.973999 # 2OT SPC
188 63 1 0.423800 19.438000 30.069000 35.938999 # 1HT SPC
189 63 1 0.423800 20.805000 30.801001 35.098999 # 1HT SPC
190 64 2 -0.847600 32.724998 32.938000 19.504999 # 2OT SPC
191 64 1 0.423800 32.243000 32.415001 20.318001 # 1HT SPC
192 64 1 0.423800 33.706001 32.516998 19.337999 # 1HT SPC
193 65 2 -0.847600 26.527000 19.035000 8.432000 # 2OT SPC
194 65 1 0.423800 25.629999 19.003000 7.831000 # 1HT SPC
195 65 1 0.423800 26.580000 18.150000 9.048000 # 1HT SPC
196 66 2 -0.847600 4.713000 35.095001 2.723000 # 2OT SPC
197 66 1 0.423800 4.699000 35.571999 1.754000 # 1HT SPC
198 66 1 0.423800 4.689000 34.022999 2.597000 # 1HT SPC
199 67 2 -0.847600 6.307000 0.719000 7.631000 # 2OT SPC
200 67 1 0.423800 6.536000 0.002000 6.857000 # 1HT SPC
201 67 1 0.423800 6.031000 1.660000 7.180000 # 1HT SPC
202 68 2 -0.847600 30.375000 9.170000 8.187000 # 2OT SPC
203 68 1 0.423800 29.405001 9.610000 8.363000 # 1HT SPC
204 68 1 0.423800 30.562000 9.123000 7.125000 # 1HT SPC
205 69 2 -0.847600 13.217000 12.066000 15.113000 # 2OT SPC
206 69 1 0.423800 14.219000 12.131000 14.715000 # 1HT SPC
207 69 1 0.423800 12.891000 13.045000 15.429000 # 1HT SPC
208 70 2 -0.847600 28.046000 13.258000 4.310000 # 2OT SPC
209 70 1 0.423800 27.469000 12.412000 3.965000 # 1HT SPC
210 70 1 0.423800 28.666000 13.623000 3.505000 # 1HT SPC
211 71 2 -0.847600 22.603001 32.207001 8.237000 # 2OT SPC
212 71 1 0.423800 22.268000 31.207001 8.007000 # 1HT SPC
213 71 1 0.423800 22.849001 32.271999 9.287000 # 1HT SPC
214 72 2 -0.847600 11.260000 0.030000 5.337000 # 2OT SPC
215 72 1 0.423800 10.377000 0.589000 5.612000 # 1HT SPC
216 72 1 0.423800 11.942000 0.000000 6.173000 # 1HT SPC
217 73 2 -0.847600 8.815000 26.205999 33.412998 # 2OT SPC
218 73 1 0.423800 8.427000 25.198000 33.435001 # 1HT SPC
219 73 1 0.423800 9.287000 26.389999 32.459999 # 1HT SPC
220 74 2 -0.847600 27.719999 25.899000 1.930000 # 2OT SPC
221 74 1 0.423800 27.863001 26.889999 1.524000 # 1HT SPC
222 74 1 0.423800 28.583000 25.290001 1.706000 # 1HT SPC
223 75 2 -0.847600 22.052000 34.199001 1.078000 # 2OT SPC
224 75 1 0.423800 22.349001 35.175999 0.726000 # 1HT SPC
225 75 1 0.423800 22.409000 34.056000 2.087000 # 1HT SPC
226 76 2 -0.847600 1.988000 31.297001 25.903000 # 2OT SPC
227 76 1 0.423800 1.257000 30.540001 26.143000 # 1HT SPC
228 76 1 0.423800 1.804000 32.178001 26.499001 # 1HT SPC
229 77 2 -0.847600 27.753000 9.168000 11.136000 # 2OT SPC
230 77 1 0.423800 26.924999 9.784000 10.819000 # 1HT SPC
231 77 1 0.423800 27.707001 8.215000 10.631000 # 1HT SPC
232 78 2 -0.847600 34.462002 12.982000 6.822000 # 2OT SPC
233 78 1 0.423800 33.824001 13.851000 6.773000 # 1HT SPC
234 78 1 0.423800 33.976002 12.210000 7.401000 # 1HT SPC
235 79 2 -0.847600 31.958000 21.624001 29.485001 # 2OT SPC
236 79 1 0.423800 31.528999 22.174000 30.309000 # 1HT SPC
237 79 1 0.423800 31.183001 21.377001 28.775000 # 1HT SPC
238 80 2 -0.847600 3.700000 30.909000 5.169000 # 2OT SPC
239 80 1 0.423800 3.107000 30.048000 4.896000 # 1HT SPC
240 80 1 0.423800 3.094000 31.596001 5.741000 # 1HT SPC
241 81 2 -0.847600 28.028000 2.272000 19.320000 # 2OT SPC
242 81 1 0.423800 27.613001 2.972000 20.030001 # 1HT SPC
243 81 1 0.423800 28.774000 2.769000 18.719000 # 1HT SPC
244 82 2 -0.847600 16.666000 24.750000 17.829000 # 2OT SPC
245 82 1 0.423800 16.218000 25.629999 17.392000 # 1HT SPC
246 82 1 0.423800 16.909000 24.044001 17.049000 # 1HT SPC
247 83 2 -0.847600 14.902000 14.089000 35.812000 # 2OT SPC
248 83 1 0.423800 14.307000 13.259000 36.162998 # 1HT SPC
249 83 1 0.423800 14.461000 14.493000 34.912998 # 1HT SPC
250 84 2 -0.847600 7.565000 27.954000 17.238001 # 2OT SPC
251 84 1 0.423800 7.300000 27.375000 18.110001 # 1HT SPC
252 84 1 0.423800 7.587000 29.002001 17.495001 # 1HT SPC
253 85 2 -0.847600 30.527000 25.846001 19.315001 # 2OT SPC
254 85 1 0.423800 30.728001 26.871000 19.589001 # 1HT SPC
255 85 1 0.423800 29.469000 25.650999 19.400999 # 1HT SPC
256 86 2 -0.847600 18.156000 30.722000 31.028999 # 2OT SPC
257 86 1 0.423800 17.805000 31.410000 30.274000 # 1HT SPC
258 86 1 0.423800 18.275000 29.740999 30.594999 # 1HT SPC
259 87 2 -0.847600 24.830000 17.760000 4.378000 # 2OT SPC
260 87 1 0.423800 24.215000 18.188000 3.600000 # 1HT SPC
261 87 1 0.423800 24.955999 18.479000 5.174000 # 1HT SPC
262 88 2 -0.847600 18.315001 8.776000 19.771999 # 2OT SPC
263 88 1 0.423800 18.055000 8.869000 20.816999 # 1HT SPC
264 88 1 0.423800 17.691000 8.026000 19.311001 # 1HT SPC
265 89 2 -0.847600 0.394000 22.465000 19.542999 # 2OT SPC
266 89 1 0.423800 0.165000 21.566999 20.098000 # 1HT SPC
267 89 1 0.423800 1.148000 23.031000 20.070000 # 1HT SPC
268 90 2 -0.847600 11.020000 0.150000 10.149000 # 2OT SPC
269 90 1 0.423800 11.814000 -0.002000 9.433000 # 1HT SPC
270 90 1 0.423800 11.415000 0.060000 11.150000 # 1HT SPC
271 91 2 -0.847600 5.798000 16.730000 21.417000 # 2OT SPC
272 91 1 0.423800 6.807000 16.509001 21.099001 # 1HT SPC
273 91 1 0.423800 5.542000 17.737000 21.125999 # 1HT SPC
274 92 2 -0.847600 5.643000 14.165000 21.542000 # 2OT SPC
275 92 1 0.423800 4.819000 13.467000 21.538000 # 1HT SPC
276 92 1 0.423800 5.675000 14.689000 20.598000 # 1HT SPC
277 93 2 -0.847600 24.389999 18.504999 12.040000 # 2OT SPC
278 93 1 0.423800 24.316999 19.351000 12.708000 # 1HT SPC
279 93 1 0.423800 24.847000 17.674999 12.559000 # 1HT SPC
280 94 2 -0.847600 3.911000 35.051998 28.207001 # 2OT SPC
281 94 1 0.423800 4.704000 34.435001 27.811001 # 1HT SPC
282 94 1 0.423800 4.200000 36.091000 28.146999 # 1HT SPC
283 95 2 -0.847600 23.351999 33.077000 20.055000 # 2OT SPC
284 95 1 0.423800 24.263000 33.611000 19.827000 # 1HT SPC
285 95 1 0.423800 23.047001 33.300999 21.066000 # 1HT SPC
286 96 2 -0.847600 1.236000 31.764000 29.656000 # 2OT SPC
287 96 1 0.423800 0.235000 31.372000 29.551001 # 1HT SPC
288 96 1 0.423800 1.676000 31.893999 28.679001 # 1HT SPC
289 97 2 -0.847600 11.023000 9.376000 29.718000 # 2OT SPC
290 97 1 0.423800 11.840000 8.695000 29.532000 # 1HT SPC
291 97 1 0.423800 10.500000 9.572000 28.794001 # 1HT SPC
292 98 2 -0.847600 21.735001 35.131001 4.701000 # 2OT SPC
293 98 1 0.423800 21.943001 35.480000 3.700000 # 1HT SPC
294 98 1 0.423800 20.740999 34.710999 4.736000 # 1HT SPC
295 99 2 -0.847600 13.398000 14.386000 6.514000 # 2OT SPC
296 99 1 0.423800 13.666000 13.656000 7.264000 # 1HT SPC
297 99 1 0.423800 12.342000 14.310000 6.299000 # 1HT SPC
298 100 2 -0.847600 0.317000 13.492000 1.759000 # 2OT SPC
299 100 1 0.423800 -0.000000 12.564000 2.211000 # 1HT SPC
300 100 1 0.423800 1.342000 13.401000 1.432000 # 1HT SPC
301 101 2 -0.847600 6.445000 9.025000 15.828000 # 2OT SPC
302 101 1 0.423800 5.704000 9.703000 16.226000 # 1HT SPC
303 101 1 0.423800 7.022000 8.607000 16.639000 # 1HT SPC
304 102 2 -0.847600 27.174999 1.139000 28.110001 # 2OT SPC
305 102 1 0.423800 26.534000 1.603000 27.374001 # 1HT SPC
306 102 1 0.423800 27.230000 0.078000 27.921000 # 1HT SPC
307 103 2 -0.847600 22.916000 5.749000 20.433001 # 2OT SPC
308 103 1 0.423800 22.148001 5.227000 20.985001 # 1HT SPC
309 103 1 0.423800 22.561001 5.961000 19.436001 # 1HT SPC
310 104 2 -0.847600 26.625999 27.322001 20.341999 # 2OT SPC
311 104 1 0.423800 26.584999 27.167999 21.410000 # 1HT SPC
312 104 1 0.423800 25.757999 27.879999 20.025000 # 1HT SPC
313 105 2 -0.847600 30.837999 7.818000 10.011000 # 2OT SPC
314 105 1 0.423800 31.511000 8.650000 10.158000 # 1HT SPC
315 105 1 0.423800 31.214001 7.184000 9.223000 # 1HT SPC
316 106 2 -0.847600 26.613001 25.628000 28.403000 # 2OT SPC
317 106 1 0.423800 25.634001 25.948999 28.726999 # 1HT SPC
318 106 1 0.423800 27.340000 25.861000 29.166000 # 1HT SPC
319 107 2 -0.847600 23.108999 23.521999 22.801001 # 2OT SPC
320 107 1 0.423800 23.612000 23.858999 23.695000 # 1HT SPC
321 107 1 0.423800 23.070999 24.327000 22.083000 # 1HT SPC
322 108 2 -0.847600 33.042999 31.620001 24.423000 # 2OT SPC
323 108 1 0.423800 34.094002 31.410000 24.556999 # 1HT SPC
324 108 1 0.423800 32.507999 30.695999 24.268000 # 1HT SPC
325 109 2 -0.847600 12.338000 26.836000 0.691000 # 2OT SPC
326 109 1 0.423800 12.728000 27.712999 0.196000 # 1HT SPC
327 109 1 0.423800 11.725000 26.275999 0.000000 # 1HT SPC
328 110 2 -0.847600 4.262000 14.399000 24.474001 # 2OT SPC
329 110 1 0.423800 3.242000 14.166000 24.205000 # 1HT SPC
330 110 1 0.423800 4.894000 14.306000 23.604000 # 1HT SPC
331 111 2 -0.847600 15.040000 24.671000 14.916000 # 2OT SPC
332 111 1 0.423800 16.098000 24.806000 14.742000 # 1HT SPC
333 111 1 0.423800 14.694000 25.410000 15.621000 # 1HT SPC
334 112 2 -0.847600 32.452000 34.042999 23.988001 # 2OT SPC
335 112 1 0.423800 33.285000 33.799000 24.631001 # 1HT SPC
336 112 1 0.423800 32.542999 33.501999 23.059000 # 1HT SPC
337 113 2 -0.847600 6.651000 23.382000 3.619000 # 2OT SPC
338 113 1 0.423800 6.604000 22.316999 3.793000 # 1HT SPC
339 113 1 0.423800 6.703000 23.572001 2.557000 # 1HT SPC
340 114 2 -0.847600 18.767000 30.839001 15.634000 # 2OT SPC
341 114 1 0.423800 19.528000 30.156000 15.286000 # 1HT SPC
342 114 1 0.423800 18.091000 31.069000 14.824000 # 1HT SPC
343 115 2 -0.847600 35.306999 15.795000 27.341999 # 2OT SPC
344 115 1 0.423800 35.444000 16.851000 27.523001 # 1HT SPC
345 115 1 0.423800 34.264999 15.597000 27.136000 # 1HT SPC
346 116 2 -0.847600 29.579000 8.259000 17.951000 # 2OT SPC
347 116 1 0.423800 29.362000 8.457000 18.990000 # 1HT SPC
348 116 1 0.423800 29.707001 9.193000 17.424999 # 1HT SPC
349 117 2 -0.847600 1.682000 13.968000 11.918000 # 2OT SPC
350 117 1 0.423800 0.923000 14.687000 11.644000 # 1HT SPC
351 117 1 0.423800 1.867000 13.306000 11.086000 # 1HT SPC
352 118 2 -0.847600 18.322001 22.837999 14.947000 # 2OT SPC
353 118 1 0.423800 19.007000 22.481001 15.703000 # 1HT SPC
354 118 1 0.423800 17.995001 22.009001 14.337000 # 1HT SPC
355 119 2 -0.847600 33.949001 25.488001 33.778000 # 2OT SPC
356 119 1 0.423800 34.023998 26.426001 34.307999 # 1HT SPC
357 119 1 0.423800 34.609001 24.764000 34.231998 # 1HT SPC
358 120 2 -0.847600 34.733002 12.046000 24.131001 # 2OT SPC
359 120 1 0.423800 33.980999 11.851000 24.881001 # 1HT SPC
360 120 1 0.423800 34.394001 11.675000 23.174999 # 1HT SPC
361 121 2 -0.847600 34.472000 28.162001 14.012000 # 2OT SPC
362 121 1 0.423800 34.959000 27.414000 13.403000 # 1HT SPC
363 121 1 0.423800 34.730999 29.145000 13.650000 # 1HT SPC
364 122 2 -0.847600 30.063999 1.750000 20.177999 # 2OT SPC
365 122 1 0.423800 30.518000 0.772000 20.243000 # 1HT SPC
366 122 1 0.423800 29.825001 2.103000 21.170000 # 1HT SPC
367 123 2 -0.847600 29.080000 28.695999 19.702999 # 2OT SPC
368 123 1 0.423800 29.830999 28.813000 18.937000 # 1HT SPC
369 123 1 0.423800 28.688000 27.691000 19.673000 # 1HT SPC
370 124 2 -0.847600 1.942000 25.733999 1.237000 # 2OT SPC
371 124 1 0.423800 1.405000 25.568001 0.314000 # 1HT SPC
372 124 1 0.423800 2.127000 24.787001 1.722000 # 1HT SPC
373 125 2 -0.847600 9.699000 10.414000 10.171000 # 2OT SPC
374 125 1 0.423800 9.391000 9.449000 10.546000 # 1HT SPC
375 125 1 0.423800 10.331000 10.279000 9.306000 # 1HT SPC
376 126 2 -0.847600 23.714001 31.354000 33.814999 # 2OT SPC
377 126 1 0.423800 22.856001 31.280001 34.466999 # 1HT SPC
378 126 1 0.423800 23.992001 30.368999 33.472000 # 1HT SPC
379 127 2 -0.847600 18.127001 3.262000 33.915001 # 2OT SPC
380 127 1 0.423800 18.667000 2.358000 33.674000 # 1HT SPC
381 127 1 0.423800 18.158001 3.936000 33.071999 # 1HT SPC
382 128 2 -0.847600 3.676000 33.251999 35.706001 # 2OT SPC
383 128 1 0.423800 3.527000 32.738998 34.768002 # 1HT SPC
384 128 1 0.423800 4.316000 34.108002 35.550999 # 1HT SPC
385 129 2 -0.847600 11.407000 20.180000 19.747999 # 2OT SPC
386 129 1 0.423800 10.580000 20.150999 19.054001 # 1HT SPC
387 129 1 0.423800 11.294000 21.027000 20.408001 # 1HT SPC
388 130 2 -0.847600 19.577999 21.704000 6.950000 # 2OT SPC
389 130 1 0.423800 18.664000 21.872000 7.500000 # 1HT SPC
390 130 1 0.423800 20.424999 21.882999 7.596000 # 1HT SPC
391 131 2 -0.847600 0.195000 28.021000 31.424000 # 2OT SPC
392 131 1 0.423800 0.002000 27.000000 31.716999 # 1HT SPC
393 131 1 0.423800 0.000000 28.677999 32.258999 # 1HT SPC
394 132 2 -0.847600 25.836000 8.257000 35.632000 # 2OT SPC
395 132 1 0.423800 26.733000 8.804000 35.380001 # 1HT SPC
396 132 1 0.423800 25.129000 8.331000 34.820000 # 1HT SPC
397 133 2 -0.847600 9.840000 34.964001 32.375000 # 2OT SPC
398 133 1 0.423800 10.364000 35.487000 33.160999 # 1HT SPC
399 133 1 0.423800 9.234000 34.181000 32.804001 # 1HT SPC
400 134 2 -0.847600 13.506000 2.076000 3.795000 # 2OT SPC
401 134 1 0.423800 13.915000 1.077000 3.826000 # 1HT SPC
402 134 1 0.423800 12.488000 2.037000 3.439000 # 1HT SPC
403 135 2 -0.847600 2.633000 6.241000 6.630000 # 2OT SPC
404 135 1 0.423800 1.737000 6.480000 6.076000 # 1HT SPC
405 135 1 0.423800 3.482000 6.251000 5.963000 # 1HT SPC
406 136 2 -0.847600 34.845001 14.949000 29.806000 # 2OT SPC
407 136 1 0.423800 34.254002 14.476000 29.035999 # 1HT SPC
408 136 1 0.423800 35.060001 15.968000 29.520000 # 1HT SPC
409 137 2 -0.847600 20.487000 27.613001 23.485001 # 2OT SPC
410 137 1 0.423800 19.818001 27.200001 24.226000 # 1HT SPC
411 137 1 0.423800 20.532000 28.684999 23.599001 # 1HT SPC
412 138 2 -0.847600 12.505000 0.055000 2.481000 # 2OT SPC
413 138 1 0.423800 12.123000 0.105000 1.471000 # 1HT SPC
414 138 1 0.423800 11.679000 0.007000 3.175000 # 1HT SPC
415 139 2 -0.847600 3.175000 3.732000 6.770000 # 2OT SPC
416 139 1 0.423800 2.534000 3.079000 6.196000 # 1HT SPC
417 139 1 0.423800 4.183000 3.674000 6.389000 # 1HT SPC
418 140 2 -0.847600 31.417000 20.188000 9.407000 # 2OT SPC
419 140 1 0.423800 30.573999 20.364000 10.059000 # 1HT SPC
420 140 1 0.423800 31.531000 19.127001 9.244000 # 1HT SPC
421 141 2 -0.847600 4.358000 22.528000 18.333000 # 2OT SPC
422 141 1 0.423800 5.410000 22.759001 18.253000 # 1HT SPC
423 141 1 0.423800 4.230000 21.627001 18.913000 # 1HT SPC
424 142 2 -0.847600 18.216999 10.139000 27.986000 # 2OT SPC
425 142 1 0.423800 18.945999 10.334000 27.214001 # 1HT SPC
426 142 1 0.423800 18.657000 9.514000 28.747999 # 1HT SPC
427 143 2 -0.847600 31.820000 12.470000 26.566999 # 2OT SPC
428 143 1 0.423800 32.661999 12.467000 27.243000 # 1HT SPC
429 143 1 0.423800 31.052999 11.810000 26.944000 # 1HT SPC
430 144 2 -0.847600 18.961000 25.972000 32.317001 # 2OT SPC
431 144 1 0.423800 19.785999 25.355000 32.639999 # 1HT SPC
432 144 1 0.423800 18.858999 25.905001 31.243999 # 1HT SPC
433 145 2 -0.847600 13.952000 26.040001 25.597000 # 2OT SPC
434 145 1 0.423800 13.337000 26.775999 25.100000 # 1HT SPC
435 145 1 0.423800 14.781000 25.771999 24.959000 # 1HT SPC
436 146 2 -0.847600 10.255000 13.968000 12.809000 # 2OT SPC
437 146 1 0.423800 10.540000 13.049000 13.301000 # 1HT SPC
438 146 1 0.423800 10.283000 14.780000 13.520000 # 1HT SPC
439 147 2 -0.847600 2.930000 35.522999 7.328000 # 2OT SPC
440 147 1 0.423800 3.496000 36.146000 8.005000 # 1HT SPC
441 147 1 0.423800 2.391000 36.146999 6.630000 # 1HT SPC
442 148 2 -0.847600 14.883000 28.785999 25.954000 # 2OT SPC
443 148 1 0.423800 14.203000 28.188999 26.545000 # 1HT SPC
444 148 1 0.423800 15.645000 29.202999 26.594999 # 1HT SPC
445 149 2 -0.847600 27.229000 36.150002 24.504999 # 2OT SPC
446 149 1 0.423800 27.534000 36.117001 23.469999 # 1HT SPC
447 149 1 0.423800 27.389999 35.182999 24.959000 # 1HT SPC
448 150 2 -0.847600 13.156000 32.318001 34.263000 # 2OT SPC
449 150 1 0.423800 14.146000 32.174000 34.671001 # 1HT SPC
450 150 1 0.423800 12.458000 32.495998 35.068001 # 1HT SPC
451 151 2 -0.847600 11.448000 30.198000 20.622000 # 2OT SPC
452 151 1 0.423800 12.059000 30.688000 21.365999 # 1HT SPC
453 151 1 0.423800 11.067000 30.933001 19.927999 # 1HT SPC
454 152 2 -0.847600 6.721000 16.823999 32.452999 # 2OT SPC
455 152 1 0.423800 6.993000 15.863000 32.042000 # 1HT SPC
456 152 1 0.423800 7.581000 17.268000 32.931999 # 1HT SPC
457 153 2 -0.847600 29.073999 13.468000 23.756001 # 2OT SPC
458 153 1 0.423800 28.927999 12.539000 24.287001 # 1HT SPC
459 153 1 0.423800 28.261000 14.142000 23.979000 # 1HT SPC
460 154 2 -0.847600 9.241000 24.700001 20.424999 # 2OT SPC
461 154 1 0.423800 9.074000 24.503000 19.375999 # 1HT SPC
462 154 1 0.423800 9.771000 23.870001 20.867001 # 1HT SPC
463 155 2 -0.847600 24.219000 21.662001 12.154000 # 2OT SPC
464 155 1 0.423800 24.427000 21.702000 11.095000 # 1HT SPC
465 155 1 0.423800 23.982000 22.652000 12.512000 # 1HT SPC
466 156 2 -0.847600 27.586000 28.468000 36.069000 # 2OT SPC
467 156 1 0.423800 27.993999 27.631001 35.521999 # 1HT SPC
468 156 1 0.423800 26.514999 28.358000 36.147999 # 1HT SPC
469 157 2 -0.847600 1.827000 4.803000 15.622000 # 2OT SPC
470 157 1 0.423800 1.822000 3.984000 14.918000 # 1HT SPC
471 157 1 0.423800 2.216000 4.462000 16.569000 # 1HT SPC
472 158 2 -0.847600 22.148001 15.925000 32.875999 # 2OT SPC
473 158 1 0.423800 21.343000 16.153999 33.560001 # 1HT SPC
474 158 1 0.423800 23.093000 16.158001 33.341999 # 1HT SPC
475 159 2 -0.847600 8.859000 3.514000 15.068000 # 2OT SPC
476 159 1 0.423800 9.248000 3.553000 14.061000 # 1HT SPC
477 159 1 0.423800 8.144000 4.311000 15.209000 # 1HT SPC
478 160 2 -0.847600 15.166000 16.823999 18.504999 # 2OT SPC
479 160 1 0.423800 16.132000 16.929001 18.035000 # 1HT SPC
480 160 1 0.423800 14.735000 15.872000 18.235001 # 1HT SPC
481 161 2 -0.847600 35.245998 0.311000 25.545000 # 2OT SPC
482 161 1 0.423800 34.247002 -0.000000 25.816000 # 1HT SPC
483 161 1 0.423800 35.723000 0.770000 26.396999 # 1HT SPC
484 162 2 -0.847600 34.734001 2.669000 34.249001 # 2OT SPC
485 162 1 0.423800 34.897999 1.944000 33.465000 # 1HT SPC
486 162 1 0.423800 34.602001 2.158000 35.191002 # 1HT SPC
487 163 2 -0.847600 26.948000 1.159000 3.536000 # 2OT SPC
488 163 1 0.423800 27.180000 2.007000 2.909000 # 1HT SPC
489 163 1 0.423800 27.513000 1.226000 4.454000 # 1HT SPC
490 164 2 -0.847600 20.601000 30.532000 2.017000 # 2OT SPC
491 164 1 0.423800 19.535000 30.504999 2.185000 # 1HT SPC
492 164 1 0.423800 20.801001 30.450001 0.959000 # 1HT SPC
493 165 2 -0.847600 35.414001 0.740000 28.572001 # 2OT SPC
494 165 1 0.423800 36.161999 -0.026000 28.427000 # 1HT SPC
495 165 1 0.423800 35.868999 1.713000 28.466000 # 1HT SPC
496 166 2 -0.847600 1.041000 26.049000 23.065001 # 2OT SPC
497 166 1 0.423800 0.162000 26.622000 23.323000 # 1HT SPC
498 166 1 0.423800 1.743000 26.079000 23.884001 # 1HT SPC
499 167 2 -0.847600 4.506000 2.392000 8.575000 # 2OT SPC
500 167 1 0.423800 4.937000 1.576000 9.137000 # 1HT SPC
501 167 1 0.423800 3.704000 2.837000 9.145000 # 1HT SPC
502 168 2 -0.847600 21.513000 10.117000 25.659000 # 2OT SPC
503 168 1 0.423800 22.476000 9.636000 25.568001 # 1HT SPC
504 168 1 0.423800 21.193001 10.468000 24.688999 # 1HT SPC
505 169 2 -0.847600 19.548000 13.436000 5.720000 # 2OT SPC
506 169 1 0.423800 19.771000 12.474000 5.284000 # 1HT SPC
507 169 1 0.423800 18.773001 13.324000 6.463000 # 1HT SPC
508 170 2 -0.847600 20.055000 24.698999 12.794000 # 2OT SPC
509 170 1 0.423800 20.035999 25.421000 13.597000 # 1HT SPC
510 170 1 0.423800 19.955999 23.704000 13.201000 # 1HT SPC
511 171 2 -0.847600 3.629000 8.652000 33.639000 # 2OT SPC