LAMMPS data file. CGCMM style. atom_style full generated by VMD/TopoTools v1.7 on Thu Jan 05 17:47:20 IST 2023
 4164 atoms
 2776 bonds
 1388 angles
 0 dihedrals
 0 impropers
 2 atom types
 1 bond types
 1 angle types
 0 dihedral types
 0 improper types
 -0.020499 35.514501  xlo xhi
 -0.021500 35.513500  ylo yhi
 0.130000 35.665000  zlo zhi

# Pair Coeffs
#
# 1  1HT
# 2  2OT

# Bond Coeffs
#
# 1  

# Angle Coeffs
#
# 1  unknown

 Masses

 1 1.007940 # 1HT
 2 15.999400 # 2OT

 Atoms # full

1 1 2 -0.820000 3.668000 10.082000 15.904000 # 2OT TIP3
2 1 1 0.410000 3.224000 10.451000 15.101000 # 1HT TIP3
3 1 1 0.410000 3.092000 10.379000 16.627001 # 1HT TIP3
4 2 2 -0.820000 6.033000 4.876000 20.891001 # 2OT TIP3
5 2 1 0.410000 6.078000 5.224000 21.798000 # 1HT TIP3
6 2 1 0.410000 6.592000 4.088000 20.961000 # 1HT TIP3
7 3 2 -0.820000 4.569000 3.960000 29.886999 # 2OT TIP3
8 3 1 0.410000 3.959000 3.160000 29.980000 # 1HT TIP3
9 3 1 0.410000 3.995000 4.655000 29.422001 # 1HT TIP3
10 4 2 -0.820000 5.186000 16.695999 12.072000 # 2OT TIP3
11 4 1 0.410000 6.083000 16.979000 11.816000 # 1HT TIP3
12 4 1 0.410000 5.337000 15.832000 12.490000 # 1HT TIP3
13 5 2 -0.820000 14.437000 5.794000 30.556000 # 2OT TIP3
14 5 1 0.410000 13.524000 5.319000 30.532000 # 1HT TIP3
15 5 1 0.410000 14.984000 5.113000 30.973000 # 1HT TIP3
16 6 2 -0.820000 8.324000 13.811000 21.332001 # 2OT TIP3
17 6 1 0.410000 8.633000 13.348000 22.112000 # 1HT TIP3
18 6 1 0.410000 8.506000 13.116000 20.645000 # 1HT TIP3
19 7 2 -0.820000 11.462000 26.025999 31.372999 # 2OT TIP3
20 7 1 0.410000 11.386000 26.695000 32.076000 # 1HT TIP3
21 7 1 0.410000 10.619000 26.080000 30.936001 # 1HT TIP3
22 8 2 -0.820000 3.786000 16.318001 1.310000 # 2OT TIP3
23 8 1 0.410000 3.781000 15.388000 1.196000 # 1HT TIP3
24 8 1 0.410000 4.528000 16.580000 0.781000 # 1HT TIP3
25 9 2 -0.820000 6.205000 6.991000 18.441999 # 2OT TIP3
26 9 1 0.410000 6.782000 7.347000 19.152000 # 1HT TIP3
27 9 1 0.410000 5.309000 7.062000 18.799999 # 1HT TIP3
28 10 2 -0.820000 16.125999 14.701000 4.577000 # 2OT TIP3
29 10 1 0.410000 16.070000 14.272000 3.726000 # 1HT TIP3
30 10 1 0.410000 16.805000 15.454000 4.445000 # 1HT TIP3
31 11 2 -0.820000 2.750000 8.844000 9.629000 # 2OT TIP3
32 11 1 0.410000 2.110000 8.290000 9.998000 # 1HT TIP3
33 11 1 0.410000 2.164000 9.245000 8.962000 # 1HT TIP3
34 12 2 -0.820000 3.935000 16.195000 22.108999 # 2OT TIP3
35 12 1 0.410000 4.870000 16.034000 21.985001 # 1HT TIP3
36 12 1 0.410000 3.655000 15.367000 22.580999 # 1HT TIP3
37 13 2 -0.820000 2.991000 11.162000 27.860001 # 2OT TIP3
38 13 1 0.410000 3.594000 10.968000 27.129000 # 1HT TIP3
39 13 1 0.410000 2.414000 11.775000 27.430000 # 1HT TIP3
40 14 2 -0.820000 4.240000 7.037000 27.080999 # 2OT TIP3
41 14 1 0.410000 4.656000 7.831000 26.658001 # 1HT TIP3
42 14 1 0.410000 3.786000 7.428000 27.812000 # 1HT TIP3
43 15 2 -0.820000 10.674000 8.909000 4.986000 # 2OT TIP3
44 15 1 0.410000 10.998000 8.871000 5.932000 # 1HT TIP3
45 15 1 0.410000 9.748000 9.270000 5.075000 # 1HT TIP3
46 16 2 -0.820000 0.002000 5.667000 14.591000 # 2OT TIP3
47 16 1 0.410000 0.483000 5.990000 13.830000 # 1HT TIP3
48 16 1 0.410000 0.608000 5.781000 15.347000 # 1HT TIP3
49 17 2 -0.820000 9.882000 9.156000 14.916000 # 2OT TIP3
50 17 1 0.410000 9.574000 9.753000 15.597000 # 1HT TIP3
51 17 1 0.410000 10.021000 8.264000 15.289000 # 1HT TIP3
52 18 2 -0.820000 7.964000 6.107000 29.452999 # 2OT TIP3
53 18 1 0.410000 8.242000 5.206000 29.599001 # 1HT TIP3
54 18 1 0.410000 8.422000 6.545000 30.237000 # 1HT TIP3
55 19 2 -0.820000 6.316000 5.288000 27.495001 # 2OT TIP3
56 19 1 0.410000 6.640000 5.631000 28.363001 # 1HT TIP3
57 19 1 0.410000 5.563000 5.852000 27.280001 # 1HT TIP3
58 20 2 -0.820000 12.889000 29.660000 9.087000 # 2OT TIP3
59 20 1 0.410000 12.578000 29.796000 9.975000 # 1HT TIP3
60 20 1 0.410000 13.764000 29.337000 9.212000 # 1HT TIP3
61 21 2 -0.820000 1.661000 6.681000 1.943000 # 2OT TIP3
62 21 1 0.410000 1.943000 5.739000 1.981000 # 1HT TIP3
63 21 1 0.410000 0.778000 6.599000 1.483000 # 1HT TIP3
64 22 2 -0.820000 4.821000 20.603001 11.239000 # 2OT TIP3
65 22 1 0.410000 5.466000 20.782000 11.963000 # 1HT TIP3
66 22 1 0.410000 5.384000 20.914000 10.456000 # 1HT TIP3
67 23 2 -0.820000 15.022000 20.855000 12.831000 # 2OT TIP3
68 23 1 0.410000 14.222000 20.809000 13.292000 # 1HT TIP3
69 23 1 0.410000 14.673000 21.056999 11.918000 # 1HT TIP3
70 24 2 -0.820000 1.339000 3.782000 22.813999 # 2OT TIP3
71 24 1 0.410000 0.839000 3.425000 22.087000 # 1HT TIP3
72 24 1 0.410000 1.775000 3.077000 23.138000 # 1HT TIP3
73 25 2 -0.820000 0.485000 15.137000 22.476000 # 2OT TIP3
74 25 1 0.410000 0.644000 15.425000 23.349001 # 1HT TIP3
75 25 1 0.410000 0.312000 15.961000 21.975000 # 1HT TIP3
76 26 2 -0.820000 13.143000 13.795000 33.479000 # 2OT TIP3
77 26 1 0.410000 12.931000 13.553000 34.355999 # 1HT TIP3
78 26 1 0.410000 13.523000 14.662000 33.519001 # 1HT TIP3
79 27 2 -0.820000 12.421000 20.594999 31.343000 # 2OT TIP3
80 27 1 0.410000 12.330000 20.621000 32.303001 # 1HT TIP3
81 27 1 0.410000 12.281000 21.525999 31.063000 # 1HT TIP3
82 28 2 -0.820000 5.608000 23.917999 12.959000 # 2OT TIP3
83 28 1 0.410000 4.840000 23.622000 12.545000 # 1HT TIP3
84 28 1 0.410000 6.037000 24.336000 12.208000 # 1HT TIP3
85 29 2 -0.820000 10.426000 7.604000 2.404000 # 2OT TIP3
86 29 1 0.410000 10.761000 8.401000 1.994000 # 1HT TIP3
87 29 1 0.410000 10.248000 7.889000 3.308000 # 1HT TIP3
88 30 2 -0.820000 8.569000 25.684000 12.211000 # 2OT TIP3
89 30 1 0.410000 9.123000 25.542000 13.015000 # 1HT TIP3
90 30 1 0.410000 8.805000 26.594999 11.927000 # 1HT TIP3
91 31 2 -0.820000 4.269000 22.752001 16.264999 # 2OT TIP3
92 31 1 0.410000 4.149000 23.680000 15.888000 # 1HT TIP3
93 31 1 0.410000 5.061000 22.796000 16.775999 # 1HT TIP3
94 32 2 -0.820000 3.599000 13.689000 23.583000 # 2OT TIP3
95 32 1 0.410000 3.430000 12.876000 24.062000 # 1HT TIP3
96 32 1 0.410000 4.561000 13.769000 23.660999 # 1HT TIP3
97 33 2 -0.820000 19.952000 1.961000 26.164000 # 2OT TIP3
98 33 1 0.410000 20.414000 1.079000 26.079000 # 1HT TIP3
99 33 1 0.410000 20.667000 2.653000 26.013000 # 1HT TIP3
100 34 2 -0.820000 22.572001 6.242000 3.478000 # 2OT TIP3
101 34 1 0.410000 21.705000 5.845000 3.830000 # 1HT TIP3
102 34 1 0.410000 22.951000 5.659000 2.858000 # 1HT TIP3
103 35 2 -0.820000 7.782000 28.346001 20.641001 # 2OT TIP3
104 35 1 0.410000 8.655000 28.233999 21.114000 # 1HT TIP3
105 35 1 0.410000 7.669000 29.295000 20.444000 # 1HT TIP3
106 36 2 -0.820000 10.926000 5.365000 1.018000 # 2OT TIP3
107 36 1 0.410000 11.138000 4.769000 1.754000 # 1HT TIP3
108 36 1 0.410000 10.657000 6.212000 1.493000 # 1HT TIP3
109 37 2 -0.820000 8.647000 4.314000 19.278000 # 2OT TIP3
110 37 1 0.410000 7.964000 3.611000 19.326000 # 1HT TIP3
111 37 1 0.410000 8.043000 5.064000 19.153000 # 1HT TIP3
112 38 2 -0.820000 8.381000 17.319000 23.275000 # 2OT TIP3
113 38 1 0.410000 7.516000 17.340000 23.695000 # 1HT TIP3
114 38 1 0.410000 8.431000 18.263000 23.009001 # 1HT TIP3
115 39 2 -0.820000 4.342000 11.388000 25.271000 # 2OT TIP3
116 39 1 0.410000 4.842000 10.697000 25.677999 # 1HT TIP3
117 39 1 0.410000 4.903000 12.148000 25.577999 # 1HT TIP3
118 40 2 -0.820000 1.670000 15.675000 29.166000 # 2OT TIP3
119 40 1 0.410000 2.120000 15.950000 29.974001 # 1HT TIP3
120 40 1 0.410000 0.763000 15.517000 29.468000 # 1HT TIP3
121 41 2 -0.820000 16.469999 28.089001 2.181000 # 2OT TIP3
122 41 1 0.410000 16.854000 27.230000 2.499000 # 1HT TIP3
123 41 1 0.410000 15.533000 27.856001 2.088000 # 1HT TIP3
124 42 2 -0.820000 8.376000 32.914001 8.736000 # 2OT TIP3
125 42 1 0.410000 9.100000 32.283001 8.734000 # 1HT TIP3
126 42 1 0.410000 8.807000 33.794998 8.568000 # 1HT TIP3
127 43 2 -0.820000 0.802000 25.084000 5.523000 # 2OT TIP3
128 43 1 0.410000 0.579000 26.065001 5.505000 # 1HT TIP3
129 43 1 0.410000 1.795000 25.163000 5.445000 # 1HT TIP3
130 44 2 -0.820000 4.299000 17.774000 7.169000 # 2OT TIP3
131 44 1 0.410000 3.303000 17.802999 7.322000 # 1HT TIP3
132 44 1 0.410000 4.533000 18.754999 6.924000 # 1HT TIP3
133 45 2 -0.820000 8.892000 12.977000 5.321000 # 2OT TIP3
134 45 1 0.410000 8.119000 12.478000 5.443000 # 1HT TIP3
135 45 1 0.410000 9.342000 12.557000 4.536000 # 1HT TIP3
136 46 2 -0.820000 2.708000 20.969000 24.504000 # 2OT TIP3
137 46 1 0.410000 2.589000 20.945000 23.556000 # 1HT TIP3
138 46 1 0.410000 3.123000 21.834999 24.549000 # 1HT TIP3
139 47 2 -0.820000 2.428000 12.731000 30.487000 # 2OT TIP3
140 47 1 0.410000 2.719000 12.073000 29.830000 # 1HT TIP3
141 47 1 0.410000 2.582000 13.542000 30.007999 # 1HT TIP3
142 48 2 -0.820000 11.281000 31.586000 24.226000 # 2OT TIP3
143 48 1 0.410000 11.147000 30.638000 24.048000 # 1HT TIP3
144 48 1 0.410000 12.131000 31.561001 24.702000 # 1HT TIP3
145 49 2 -0.820000 2.174000 18.468000 2.212000 # 2OT TIP3
146 49 1 0.410000 2.632000 17.628000 2.203000 # 1HT TIP3
147 49 1 0.410000 2.931000 19.120001 2.281000 # 1HT TIP3
148 50 2 -0.820000 2.916000 31.913000 8.978000 # 2OT TIP3
149 50 1 0.410000 3.773000 32.387001 9.016000 # 1HT TIP3
150 50 1 0.410000 2.225000 32.578999 9.028000 # 1HT TIP3
151 51 2 -0.820000 18.870001 21.459999 28.971001 # 2OT TIP3
152 51 1 0.410000 17.903000 21.288000 28.721001 # 1HT TIP3
153 51 1 0.410000 19.073999 20.691000 29.591000 # 1HT TIP3
154 52 2 -0.820000 6.079000 33.355999 25.597000 # 2OT TIP3
155 52 1 0.410000 6.483000 33.937000 26.264999 # 1HT TIP3
156 52 1 0.410000 5.182000 33.791000 25.496000 # 1HT TIP3
157 53 2 -0.820000 3.522000 29.694000 27.275000 # 2OT TIP3
158 53 1 0.410000 2.979000 29.239000 28.035000 # 1HT TIP3
159 53 1 0.410000 2.890000 30.250000 26.886999 # 1HT TIP3
160 54 2 -0.820000 9.064000 30.445999 17.695999 # 2OT TIP3
161 54 1 0.410000 9.896000 30.191999 18.080999 # 1HT TIP3
162 54 1 0.410000 8.498000 30.631001 18.490999 # 1HT TIP3
163 55 2 -0.820000 18.420000 32.007000 22.329000 # 2OT TIP3
164 55 1 0.410000 17.913000 31.809999 23.089001 # 1HT TIP3
165 55 1 0.410000 19.344999 32.189999 22.662001 # 1HT TIP3
166 56 2 -0.820000 0.565000 29.252001 1.583000 # 2OT TIP3
167 56 1 0.410000 1.463000 29.562000 1.736000 # 1HT TIP3
168 56 1 0.410000 0.586000 28.334999 1.788000 # 1HT TIP3
169 57 2 -0.820000 13.612000 17.680000 18.622000 # 2OT TIP3
170 57 1 0.410000 13.744000 17.414000 19.507999 # 1HT TIP3
171 57 1 0.410000 14.526000 17.830999 18.347000 # 1HT TIP3
172 58 2 -0.820000 10.082000 34.674000 11.934000 # 2OT TIP3
173 58 1 0.410000 10.208000 35.123001 12.795000 # 1HT TIP3
174 58 1 0.410000 9.448000 35.287998 11.545000 # 1HT TIP3
175 59 2 -0.820000 1.287000 24.132000 23.737000 # 2OT TIP3
176 59 1 0.410000 1.235000 23.924000 24.731001 # 1HT TIP3
177 59 1 0.410000 2.088000 24.709000 23.639000 # 1HT TIP3
178 60 2 -0.820000 8.084000 32.875999 15.824000 # 2OT TIP3
179 60 1 0.410000 7.143000 32.955002 15.781000 # 1HT TIP3
180 60 1 0.410000 8.277000 32.234001 16.497000 # 1HT TIP3
181 61 2 -0.820000 6.365000 2.674000 28.059000 # 2OT TIP3
182 61 1 0.410000 5.799000 3.437000 27.849001 # 1HT TIP3
183 61 1 0.410000 7.175000 3.055000 28.403000 # 1HT TIP3
184 62 2 -0.820000 9.339000 6.738000 31.900999 # 2OT TIP3
185 62 1 0.410000 8.904000 7.236000 32.633999 # 1HT TIP3
186 62 1 0.410000 9.404000 5.838000 32.222000 # 1HT TIP3
187 63 2 -0.820000 15.414000 6.569000 2.501000 # 2OT TIP3
188 63 1 0.410000 16.224001 6.858000 2.128000 # 1HT TIP3
189 63 1 0.410000 14.808000 6.700000 1.671000 # 1HT TIP3
190 64 2 -0.820000 7.571000 3.798000 34.095001 # 2OT TIP3
191 64 1 0.410000 6.966000 4.404000 33.493999 # 1HT TIP3
192 64 1 0.410000 7.446000 4.095000 35.028000 # 1HT TIP3
193 65 2 -0.820000 9.935000 12.876000 10.191000 # 2OT TIP3
194 65 1 0.410000 9.709000 12.098000 9.634000 # 1HT TIP3
195 65 1 0.410000 9.472000 12.766000 11.018000 # 1HT TIP3
196 66 2 -0.820000 7.060000 2.074000 19.830000 # 2OT TIP3
197 66 1 0.410000 7.650000 1.619000 20.528000 # 1HT TIP3
198 66 1 0.410000 6.148000 1.796000 20.035000 # 1HT TIP3
199 67 2 -0.820000 13.891000 1.919000 2.992000 # 2OT TIP3
200 67 1 0.410000 14.198000 2.681000 3.422000 # 1HT TIP3
201 67 1 0.410000 13.212000 1.577000 3.578000 # 1HT TIP3
202 68 2 -0.820000 8.823000 10.581000 8.827000 # 2OT TIP3
203 68 1 0.410000 8.183000 10.753000 8.148000 # 1HT TIP3
204 68 1 0.410000 8.389000 10.061000 9.534000 # 1HT TIP3
205 69 2 -0.820000 9.078000 11.967000 12.734000 # 2OT TIP3
206 69 1 0.410000 8.228000 11.561000 12.993000 # 1HT TIP3
207 69 1 0.410000 9.512000 12.194000 13.560000 # 1HT TIP3
208 70 2 -0.820000 10.282000 0.640000 2.053000 # 2OT TIP3
209 70 1 0.410000 10.367000 0.959000 3.016000 # 1HT TIP3
210 70 1 0.410000 9.743000 1.323000 1.667000 # 1HT TIP3
211 71 2 -0.820000 4.618000 8.125000 7.777000 # 2OT TIP3
212 71 1 0.410000 5.405000 7.919000 8.314000 # 1HT TIP3
213 71 1 0.410000 4.002000 8.458000 8.422000 # 1HT TIP3
214 72 2 -0.820000 3.403000 4.687000 9.815000 # 2OT TIP3
215 72 1 0.410000 3.109000 5.272000 9.097000 # 1HT TIP3
216 72 1 0.410000 3.817000 3.973000 9.327000 # 1HT TIP3
217 73 2 -0.820000 3.276000 7.465000 19.325001 # 2OT TIP3
218 73 1 0.410000 2.772000 6.991000 19.964001 # 1HT TIP3
219 73 1 0.410000 3.604000 8.288000 19.753000 # 1HT TIP3
220 74 2 -0.820000 2.891000 5.044000 32.612999 # 2OT TIP3
221 74 1 0.410000 2.260000 4.520000 33.150002 # 1HT TIP3
222 74 1 0.410000 2.303000 5.510000 32.020000 # 1HT TIP3
223 75 2 -0.820000 1.840000 8.265000 28.662001 # 2OT TIP3
224 75 1 0.410000 1.680000 8.044000 27.747000 # 1HT TIP3
225 75 1 0.410000 1.834000 9.211000 28.733000 # 1HT TIP3
226 76 2 -0.820000 9.978000 7.875000 24.948000 # 2OT TIP3
227 76 1 0.410000 9.589000 7.626000 25.844999 # 1HT TIP3
228 76 1 0.410000 10.436000 8.656000 25.187000 # 1HT TIP3
229 77 2 -0.820000 9.927000 4.185000 32.805000 # 2OT TIP3
230 77 1 0.410000 9.056000 3.935000 33.202000 # 1HT TIP3
231 77 1 0.410000 10.360000 3.325000 32.665001 # 1HT TIP3
232 78 2 -0.820000 3.119000 10.325000 13.158000 # 2OT TIP3
233 78 1 0.410000 3.598000 10.900000 12.512000 # 1HT TIP3
234 78 1 0.410000 3.440000 9.430000 12.962000 # 1HT TIP3
235 79 2 -0.820000 2.378000 5.806000 16.253000 # 2OT TIP3
236 79 1 0.410000 2.157000 6.161000 17.099001 # 1HT TIP3
237 79 1 0.410000 3.301000 6.032000 16.125999 # 1HT TIP3
238 80 2 -0.820000 6.382000 22.271000 2.319000 # 2OT TIP3
239 80 1 0.410000 5.550000 22.035000 1.847000 # 1HT TIP3
240 80 1 0.410000 6.859000 21.472000 2.192000 # 1HT TIP3
241 81 2 -0.820000 31.804001 12.756000 7.052000 # 2OT TIP3
242 81 1 0.410000 31.542999 13.642000 6.731000 # 1HT TIP3
243 81 1 0.410000 32.291000 12.930000 7.867000 # 1HT TIP3
244 82 2 -0.820000 4.017000 3.905000 19.417999 # 2OT TIP3
245 82 1 0.410000 3.142000 4.042000 19.132000 # 1HT TIP3
246 82 1 0.410000 4.582000 4.727000 19.295000 # 1HT TIP3
247 83 2 -0.820000 2.344000 20.472000 21.631001 # 2OT TIP3
248 83 1 0.410000 2.932000 20.820999 20.945000 # 1HT TIP3
249 83 1 0.410000 1.467000 20.548000 21.138000 # 1HT TIP3
250 84 2 -0.820000 20.613001 13.616000 11.066000 # 2OT TIP3
251 84 1 0.410000 20.739000 13.959000 10.218000 # 1HT TIP3
252 84 1 0.410000 19.618999 13.816000 11.250000 # 1HT TIP3
253 85 2 -0.820000 11.492000 5.548000 34.846001 # 2OT TIP3
254 85 1 0.410000 11.163000 5.204000 34.040001 # 1HT TIP3
255 85 1 0.410000 11.386000 6.479000 34.859001 # 1HT TIP3
256 86 2 -0.820000 1.787000 9.518000 24.514999 # 2OT TIP3
257 86 1 0.410000 2.132000 9.575000 23.646000 # 1HT TIP3
258 86 1 0.410000 1.860000 10.406000 24.787001 # 1HT TIP3
259 87 2 -0.820000 4.127000 1.870000 32.761002 # 2OT TIP3
260 87 1 0.410000 3.830000 2.272000 31.989000 # 1HT TIP3
261 87 1 0.410000 4.730000 2.562000 33.098000 # 1HT TIP3
262 88 2 -0.820000 14.526000 10.532000 20.136999 # 2OT TIP3
263 88 1 0.410000 14.162000 9.733000 20.503000 # 1HT TIP3
264 88 1 0.410000 14.466000 10.420000 19.194000 # 1HT TIP3
265 89 2 -0.820000 26.124001 16.594000 16.806999 # 2OT TIP3
266 89 1 0.410000 26.948000 16.864000 17.243999 # 1HT TIP3
267 89 1 0.410000 26.136999 17.048000 15.900000 # 1HT TIP3
268 90 2 -0.820000 8.876000 28.437000 5.579000 # 2OT TIP3
269 90 1 0.410000 9.227000 27.577000 5.358000 # 1HT TIP3
270 90 1 0.410000 8.790000 28.398001 6.533000 # 1HT TIP3
271 91 2 -0.820000 5.573000 14.804000 19.090000 # 2OT TIP3
272 91 1 0.410000 5.959000 15.339000 19.808001 # 1HT TIP3
273 91 1 0.410000 5.869000 15.413000 18.330999 # 1HT TIP3
274 92 2 -0.820000 16.283001 7.354000 22.781000 # 2OT TIP3
275 92 1 0.410000 15.640000 8.058000 22.448999 # 1HT TIP3
276 92 1 0.410000 15.973000 6.560000 22.379000 # 1HT TIP3
277 93 2 -0.820000 22.872000 18.441000 16.788000 # 2OT TIP3
278 93 1 0.410000 22.201000 17.864000 16.379000 # 1HT TIP3
279 93 1 0.410000 22.334999 18.981001 17.424999 # 1HT TIP3
280 94 2 -0.820000 5.458000 13.097000 4.589000 # 2OT TIP3
281 94 1 0.410000 5.673000 13.019000 3.612000 # 1HT TIP3
282 94 1 0.410000 4.899000 13.894000 4.657000 # 1HT TIP3
283 95 2 -0.820000 27.849001 9.868000 19.173000 # 2OT TIP3
284 95 1 0.410000 27.170000 9.720000 19.863001 # 1HT TIP3
285 95 1 0.410000 27.403000 10.419000 18.489000 # 1HT TIP3
286 96 2 -0.820000 4.552000 1.370000 20.330000 # 2OT TIP3
287 96 1 0.410000 4.274000 2.194000 19.952999 # 1HT TIP3
288 96 1 0.410000 4.235000 0.801000 19.570999 # 1HT TIP3
289 97 2 -0.820000 4.594000 25.266001 15.200000 # 2OT TIP3
290 97 1 0.410000 3.638000 25.500000 15.196000 # 1HT TIP3
291 97 1 0.410000 4.758000 24.896999 14.312000 # 1HT TIP3
292 98 2 -0.820000 10.966000 0.487000 27.664000 # 2OT TIP3
293 98 1 0.410000 10.835000 1.423000 27.475000 # 1HT TIP3
294 98 1 0.410000 10.558000 0.092000 26.882999 # 1HT TIP3
295 99 2 -0.820000 6.580000 12.992000 29.691000 # 2OT TIP3
296 99 1 0.410000 6.430000 13.886000 29.972000 # 1HT TIP3
297 99 1 0.410000 6.429000 12.499000 30.481001 # 1HT TIP3
298 100 2 -0.820000 5.160000 13.744000 7.954000 # 2OT TIP3
299 100 1 0.410000 6.048000 13.422000 8.207000 # 1HT TIP3
300 100 1 0.410000 5.008000 14.493000 8.528000 # 1HT TIP3
301 101 2 -0.820000 1.488000 7.754000 31.837999 # 2OT TIP3
302 101 1 0.410000 0.778000 8.323000 32.195000 # 1HT TIP3
303 101 1 0.410000 1.543000 8.043000 30.921000 # 1HT TIP3
304 102 2 -0.820000 10.390000 6.386000 18.827999 # 2OT TIP3
305 102 1 0.410000 10.688000 6.484000 19.731001 # 1HT TIP3
306 102 1 0.410000 9.844000 5.589000 18.921000 # 1HT TIP3
307 103 2 -0.820000 1.678000 21.941999 1.035000 # 2OT TIP3
308 103 1 0.410000 1.272000 21.280001 1.592000 # 1HT TIP3
309 103 1 0.410000 1.498000 22.809000 1.493000 # 1HT TIP3
310 104 2 -0.820000 9.630000 21.547001 3.000000 # 2OT TIP3
311 104 1 0.410000 9.601000 22.471001 2.643000 # 1HT TIP3
312 104 1 0.410000 9.287000 20.954000 2.312000 # 1HT TIP3
313 105 2 -0.820000 0.755000 34.043999 12.923000 # 2OT TIP3
314 105 1 0.410000 1.378000 34.200001 13.656000 # 1HT TIP3
315 105 1 0.410000 0.331000 33.221001 13.229000 # 1HT TIP3
316 106 2 -0.820000 4.391000 29.423000 21.120001 # 2OT TIP3
317 106 1 0.410000 3.763000 28.799000 21.511000 # 1HT TIP3
318 106 1 0.410000 4.594000 29.044001 20.208000 # 1HT TIP3
319 107 2 -0.820000 2.344000 10.571000 2.624000 # 2OT TIP3
320 107 1 0.410000 2.122000 10.753000 3.553000 # 1HT TIP3
321 107 1 0.410000 2.947000 9.791000 2.617000 # 1HT TIP3
322 108 2 -0.820000 2.582000 27.635000 22.063000 # 2OT TIP3
323 108 1 0.410000 1.826000 27.334000 22.610001 # 1HT TIP3
324 108 1 0.410000 2.141000 27.872999 21.226999 # 1HT TIP3
325 109 2 -0.820000 8.123000 7.890000 34.105000 # 2OT TIP3
326 109 1 0.410000 8.283000 7.539000 35.039001 # 1HT TIP3
327 109 1 0.410000 8.729000 8.634000 34.000000 # 1HT TIP3
328 110 2 -0.820000 13.385000 9.769000 29.452999 # 2OT TIP3
329 110 1 0.410000 13.856000 10.391000 30.062000 # 1HT TIP3
330 110 1 0.410000 12.599000 9.513000 29.965000 # 1HT TIP3
331 111 2 -0.820000 0.823000 23.667999 2.888000 # 2OT TIP3
332 111 1 0.410000 1.636000 23.316000 3.340000 # 1HT TIP3
333 111 1 0.410000 0.253000 23.978001 3.640000 # 1HT TIP3
334 112 2 -0.820000 2.083000 28.332001 7.326000 # 2OT TIP3
335 112 1 0.410000 1.558000 28.514000 8.115000 # 1HT TIP3
336 112 1 0.410000 1.496000 27.737000 6.811000 # 1HT TIP3
337 113 2 -0.820000 13.220000 24.493999 13.092000 # 2OT TIP3
338 113 1 0.410000 12.891000 25.382999 13.287000 # 1HT TIP3
339 113 1 0.410000 13.056000 23.917999 13.853000 # 1HT TIP3
340 114 2 -0.820000 0.995000 28.021000 10.015000 # 2OT TIP3
341 114 1 0.410000 0.013000 27.981001 10.043000 # 1HT TIP3
342 114 1 0.410000 1.298000 27.118999 10.263000 # 1HT TIP3
343 115 2 -0.820000 2.710000 6.185000 7.540000 # 2OT TIP3
344 115 1 0.410000 2.467000 6.236000 6.561000 # 1HT TIP3
345 115 1 0.410000 3.410000 6.855000 7.580000 # 1HT TIP3
346 116 2 -0.820000 6.911000 19.458000 17.334999 # 2OT TIP3
347 116 1 0.410000 7.517000 20.118000 16.957001 # 1HT TIP3
348 116 1 0.410000 6.315000 19.136000 16.587999 # 1HT TIP3
349 117 2 -0.820000 2.834000 15.043000 34.374001 # 2OT TIP3
350 117 1 0.410000 2.279000 14.807000 35.123001 # 1HT TIP3
351 117 1 0.410000 3.607000 14.549000 34.502998 # 1HT TIP3
352 118 2 -0.820000 5.179000 20.889999 27.386999 # 2OT TIP3
353 118 1 0.410000 4.618000 21.606001 27.646000 # 1HT TIP3
354 118 1 0.410000 5.196000 20.211000 28.107000 # 1HT TIP3
355 119 2 -0.820000 16.191999 22.403000 3.782000 # 2OT TIP3
356 119 1 0.410000 16.363001 22.881001 4.622000 # 1HT TIP3
357 119 1 0.410000 16.427000 23.065001 3.086000 # 1HT TIP3
358 120 2 -0.820000 13.540000 22.219999 2.748000 # 2OT TIP3
359 120 1 0.410000 12.965000 22.475000 3.462000 # 1HT TIP3
360 120 1 0.410000 14.428000 22.403999 3.074000 # 1HT TIP3
361 121 2 -0.820000 9.525000 28.541000 30.150999 # 2OT TIP3
362 121 1 0.410000 10.415000 28.417999 29.686001 # 1HT TIP3
363 121 1 0.410000 9.197000 27.671000 30.239000 # 1HT TIP3
364 122 2 -0.820000 3.005000 33.969002 14.749000 # 2OT TIP3
365 122 1 0.410000 3.749000 34.208000 14.159000 # 1HT TIP3
366 122 1 0.410000 3.103000 33.042000 14.925000 # 1HT TIP3
367 123 2 -0.820000 8.389000 18.165001 30.992001 # 2OT TIP3
368 123 1 0.410000 7.968000 17.770000 30.209999 # 1HT TIP3
369 123 1 0.410000 8.417000 17.451000 31.641001 # 1HT TIP3
370 124 2 -0.820000 15.326000 26.968000 31.402000 # 2OT TIP3
371 124 1 0.410000 14.453000 26.736000 30.927999 # 1HT TIP3
372 124 1 0.410000 15.068000 27.620001 32.033001 # 1HT TIP3
373 125 2 -0.820000 8.181000 23.465000 7.637000 # 2OT TIP3
374 125 1 0.410000 9.007000 23.937000 7.703000 # 1HT TIP3
375 125 1 0.410000 7.517000 24.117001 7.312000 # 1HT TIP3
376 126 2 -0.820000 10.929000 14.750000 5.718000 # 2OT TIP3
377 126 1 0.410000 10.050000 14.541000 5.408000 # 1HT TIP3
378 126 1 0.410000 11.401000 13.879000 5.717000 # 1HT TIP3
379 127 2 -0.820000 19.659000 25.552000 17.448999 # 2OT TIP3
380 127 1 0.410000 20.181999 26.346001 17.499001 # 1HT TIP3
381 127 1 0.410000 18.733999 25.858000 17.381001 # 1HT TIP3
382 128 2 -0.820000 6.984000 34.157001 23.048000 # 2OT TIP3
383 128 1 0.410000 6.218000 34.084999 22.457001 # 1HT TIP3
384 128 1 0.410000 6.716000 33.608002 23.799999 # 1HT TIP3
385 129 2 -0.820000 2.086000 25.452000 18.194000 # 2OT TIP3
386 129 1 0.410000 2.174000 25.923000 17.393999 # 1HT TIP3
387 129 1 0.410000 1.272000 25.868999 18.604000 # 1HT TIP3
388 130 2 -0.820000 1.683000 25.667000 26.332001 # 2OT TIP3
389 130 1 0.410000 2.580000 25.907000 26.426001 # 1HT TIP3
390 130 1 0.410000 1.485000 25.226999 27.125999 # 1HT TIP3
391 131 2 -0.820000 23.330999 21.618999 18.069000 # 2OT TIP3
392 131 1 0.410000 23.136999 22.516001 18.455999 # 1HT TIP3
393 131 1 0.410000 22.663000 20.985001 18.450001 # 1HT TIP3
394 132 2 -0.820000 1.754000 34.617001 34.408001 # 2OT TIP3
395 132 1 0.410000 1.791000 34.661999 35.419998 # 1HT TIP3
396 132 1 0.410000 2.568000 35.011002 34.179001 # 1HT TIP3
397 133 2 -0.820000 14.700000 29.177000 33.075001 # 2OT TIP3
398 133 1 0.410000 14.575000 28.886999 33.995998 # 1HT TIP3
399 133 1 0.410000 13.769000 29.183001 32.748001 # 1HT TIP3
400 134 2 -0.820000 16.507000 17.170000 21.006001 # 2OT TIP3
401 134 1 0.410000 17.226000 17.006001 20.295000 # 1HT TIP3
402 134 1 0.410000 16.030001 16.297001 21.082001 # 1HT TIP3
403 135 2 -0.820000 3.790000 23.318001 26.066999 # 2OT TIP3
404 135 1 0.410000 4.111000 23.684000 26.900999 # 1HT TIP3
405 135 1 0.410000 2.835000 23.195999 26.247999 # 1HT TIP3
406 136 2 -0.820000 21.955000 32.145000 12.120000 # 2OT TIP3
407 136 1 0.410000 22.028000 32.757000 12.826000 # 1HT TIP3
408 136 1 0.410000 22.702000 32.400002 11.499000 # 1HT TIP3
409 137 2 -0.820000 7.486000 29.742001 31.971001 # 2OT TIP3
410 137 1 0.410000 8.116000 29.155001 31.492001 # 1HT TIP3
411 137 1 0.410000 6.778000 29.096001 32.063999 # 1HT TIP3
412 138 2 -0.820000 7.435000 31.115999 20.100000 # 2OT TIP3
413 138 1 0.410000 6.578000 31.264000 19.666000 # 1HT TIP3
414 138 1 0.410000 7.314000 31.542000 21.014000 # 1HT TIP3
415 139 2 -0.820000 11.437000 33.794998 19.948999 # 2OT TIP3
416 139 1 0.410000 10.892000 33.629002 19.166000 # 1HT TIP3
417 139 1 0.410000 10.876000 33.721001 20.759001 # 1HT TIP3
418 140 2 -0.820000 3.951000 32.492001 20.099001 # 2OT TIP3
419 140 1 0.410000 3.955000 31.770000 19.393000 # 1HT TIP3
420 140 1 0.410000 3.117000 32.282001 20.546000 # 1HT TIP3
421 141 2 -0.820000 6.334000 32.821999 30.600000 # 2OT TIP3
422 141 1 0.410000 7.193000 32.841999 31.097000 # 1HT TIP3
423 141 1 0.410000 6.630000 32.522999 29.704000 # 1HT TIP3
424 142 2 -0.820000 4.062000 33.759998 5.642000 # 2OT TIP3
425 142 1 0.410000 3.684000 34.307999 6.363000 # 1HT TIP3
426 142 1 0.410000 3.294000 33.252998 5.382000 # 1HT TIP3
427 143 2 -0.820000 11.613000 34.832001 15.946000 # 2OT TIP3
428 143 1 0.410000 11.669000 33.875000 16.205000 # 1HT TIP3
429 143 1 0.410000 10.848000 35.106998 16.386000 # 1HT TIP3
430 144 2 -0.820000 0.747000 4.469000 10.579000 # 2OT TIP3
431 144 1 0.410000 0.426000 3.568000 10.339000 # 1HT TIP3
432 144 1 0.410000 1.505000 4.585000 9.990000 # 1HT TIP3
433 145 2 -0.820000 5.356000 5.388000 16.046000 # 2OT TIP3
434 145 1 0.410000 5.884000 6.064000 16.461000 # 1HT TIP3
435 145 1 0.410000 5.592000 4.622000 16.537001 # 1HT TIP3
436 146 2 -0.820000 1.889000 5.585000 29.541000 # 2OT TIP3
437 146 1 0.410000 1.938000 6.502000 29.263000 # 1HT TIP3
438 146 1 0.410000 1.015000 5.312000 29.145000 # 1HT TIP3
439 147 2 -0.820000 10.704000 6.721000 15.883000 # 2OT TIP3
440 147 1 0.410000 10.901000 6.912000 16.836000 # 1HT TIP3
441 147 1 0.410000 10.127000 5.972000 15.998000 # 1HT TIP3
442 148 2 -0.820000 26.896999 12.094000 0.679000 # 2OT TIP3
443 148 1 0.410000 26.514000 11.280000 0.304000 # 1HT TIP3
444 148 1 0.410000 27.875000 11.927000 0.553000 # 1HT TIP3
445 149 2 -0.820000 2.189000 1.706000 24.878000 # 2OT TIP3
446 149 1 0.410000 1.464000 1.091000 24.709999 # 1HT TIP3
447 149 1 0.410000 2.125000 1.805000 25.900000 # 1HT TIP3
448 150 2 -0.820000 11.763000 19.614000 9.958000 # 2OT TIP3
449 150 1 0.410000 12.279000 20.405001 9.866000 # 1HT TIP3
450 150 1 0.410000 12.435000 18.905001 9.901000 # 1HT TIP3
451 151 2 -0.820000 7.864000 10.603000 28.950001 # 2OT TIP3
452 151 1 0.410000 7.469000 11.275000 29.507000 # 1HT TIP3
453 151 1 0.410000 7.154000 9.992000 28.783001 # 1HT TIP3
454 152 2 -0.820000 10.893000 8.416000 30.315001 # 2OT TIP3
455 152 1 0.410000 10.739000 7.787000 29.538000 # 1HT TIP3
456 152 1 0.410000 10.361000 7.971000 30.974001 # 1HT TIP3
457 153 2 -0.820000 7.027000 2.224000 13.411000 # 2OT TIP3
458 153 1 0.410000 6.185000 2.801000 13.535000 # 1HT TIP3
459 153 1 0.410000 6.692000 1.403000 13.742000 # 1HT TIP3
460 154 2 -0.820000 17.812000 5.771000 5.876000 # 2OT TIP3
461 154 1 0.410000 17.219999 6.316000 5.380000 # 1HT TIP3
462 154 1 0.410000 17.551001 4.869000 5.669000 # 1HT TIP3
463 155 2 -0.820000 4.028000 7.699000 12.776000 # 2OT TIP3
464 155 1 0.410000 4.577000 7.193000 12.138000 # 1HT TIP3
465 155 1 0.410000 3.171000 7.320000 12.544000 # 1HT TIP3
466 156 2 -0.820000 11.049000 9.880000 26.882000 # 2OT TIP3
467 156 1 0.410000 11.395000 9.481000 27.655001 # 1HT TIP3
468 156 1 0.410000 11.905000 10.095000 26.382999 # 1HT TIP3
469 157 2 -0.820000 22.132999 2.886000 19.843000 # 2OT TIP3
470 157 1 0.410000 22.929001 2.596000 20.261999 # 1HT TIP3
471 157 1 0.410000 21.486000 2.828000 20.561001 # 1HT TIP3
472 158 2 -0.820000 20.975000 7.300000 30.576000 # 2OT TIP3
473 158 1 0.410000 21.781000 6.730000 30.419001 # 1HT TIP3
474 158 1 0.410000 21.289000 7.819000 31.305000 # 1HT TIP3
475 159 2 -0.820000 12.493000 9.451000 2.215000 # 2OT TIP3
476 159 1 0.410000 12.908000 9.840000 2.987000 # 1HT TIP3
477 159 1 0.410000 12.982000 8.641000 2.039000 # 1HT TIP3
478 160 2 -0.820000 11.177000 9.610000 7.928000 # 2OT TIP3
479 160 1 0.410000 10.443000 10.172000 8.053000 # 1HT TIP3
480 160 1 0.410000 10.866000 8.788000 8.298000 # 1HT TIP3
481 161 2 -0.820000 1.838000 3.206000 15.398000 # 2OT TIP3
482 161 1 0.410000 2.201000 4.081000 15.545000 # 1HT TIP3
483 161 1 0.410000 2.117000 2.999000 14.422000 # 1HT TIP3
484 162 2 -0.820000 16.132999 12.593000 16.908001 # 2OT TIP3
485 162 1 0.410000 15.352000 12.769000 16.391001 # 1HT TIP3
486 162 1 0.410000 15.887000 11.876000 17.511000 # 1HT TIP3
487 163 2 -0.820000 1.899000 11.624000 17.893000 # 2OT TIP3
488 163 1 0.410000 1.139000 11.678000 17.305000 # 1HT TIP3
489 163 1 0.410000 2.258000 12.535000 17.855000 # 1HT TIP3
490 164 2 -0.820000 9.220000 13.904000 17.340000 # 2OT TIP3
491 164 1 0.410000 10.062000 14.198000 17.738001 # 1HT TIP3
492 164 1 0.410000 9.394000 12.999000 17.101999 # 1HT TIP3
493 165 2 -0.820000 3.458000 9.868000 22.419001 # 2OT TIP3
494 165 1 0.410000 4.398000 10.016000 22.653999 # 1HT TIP3
495 165 1 0.410000 3.448000 10.189000 21.495001 # 1HT TIP3
496 166 2 -0.820000 2.924000 4.143000 26.959000 # 2OT TIP3
497 166 1 0.410000 3.558000 4.546000 26.375999 # 1HT TIP3
498 166 1 0.410000 2.665000 4.830000 27.591999 # 1HT TIP3
499 167 2 -0.820000 0.750000 2.938000 33.460999 # 2OT TIP3
500 167 1 0.410000 0.744000 2.509000 34.314999 # 1HT TIP3
501 167 1 0.410000 0.391000 3.809000 33.743000 # 1HT TIP3
502 168 2 -0.820000 18.441000 16.134001 3.840000 # 2OT TIP3
503 168 1 0.410000 18.610001 16.488001 2.968000 # 1HT TIP3
504 168 1 0.410000 19.113001 15.407000 3.961000 # 1HT TIP3
505 169 2 -0.820000 15.430000 3.274000 7.407000 # 2OT TIP3
506 169 1 0.410000 15.458000 2.741000 8.157000 # 1HT TIP3
507 169 1 0.410000 15.933000 2.740000 6.770000 # 1HT TIP3