LAMMPS data file. CGCMM style. atom_style full generated by VMD/TopoTools v1.7 on Mon Jan 30 18:22:24 IST 2023
 4500 atoms
 3000 bonds
 1500 angles
 0 dihedrals
 0 impropers
 2 atom types
 1 bond types
 1 angle types
 0 dihedral types
 0 improper types
  -0.0270 38.3180  xlo xhi
  -0.0240 38.3030  ylo yhi
  -0.0180 38.3130  zlo zhi

# Pair Coeffs
#
# 1  1HT
# 2  2OT

# Bond Coeffs
#
# 1  1HT-2OT

# Angle Coeffs
#
# 1  1HT-2OT-1HT

 Masses

 1 1.007940 # 1HT
 2 15.999400 # 2OT

 Atoms # full

1 1 2 -0.834000 29.237000 16.566000 7.795000 # 2OT TIP3
2 1 1 0.417000 28.539000 15.836000 8.178000 # 1HT TIP3
3 1 1 0.417000 30.209999 16.111000 7.686000 # 1HT TIP3
4 2 2 -0.834000 11.970000 19.042000 15.278000 # 2OT TIP3
5 2 1 0.417000 11.646000 18.294001 15.986000 # 1HT TIP3
6 2 1 0.417000 11.498000 18.863001 14.323000 # 1HT TIP3
7 3 2 -0.834000 20.402000 0.848000 16.629999 # 2OT TIP3
8 3 1 0.417000 19.495001 1.246000 16.200001 # 1HT TIP3
9 3 1 0.417000 20.733000 -0.000000 16.049999 # 1HT TIP3
10 4 2 -0.834000 29.510000 6.354000 17.778999 # 2OT TIP3
11 4 1 0.417000 30.044001 6.806000 16.955999 # 1HT TIP3
12 4 1 0.417000 28.471001 6.644000 17.736000 # 1HT TIP3
13 5 2 -0.834000 27.511999 11.759000 36.514000 # 2OT TIP3
14 5 1 0.417000 26.997999 10.818000 36.650002 # 1HT TIP3
15 5 1 0.417000 28.469000 11.721000 37.011002 # 1HT TIP3
16 6 2 -0.834000 0.514000 36.643002 35.562000 # 2OT TIP3
17 6 1 0.417000 1.568000 36.736000 35.777000 # 1HT TIP3
18 6 1 0.417000 0.003000 37.542999 35.868999 # 1HT TIP3
19 7 2 -0.834000 12.330000 35.591000 2.110000 # 2OT TIP3
20 7 1 0.417000 12.294000 36.646000 2.339000 # 1HT TIP3
21 7 1 0.417000 11.598000 35.361000 1.351000 # 1HT TIP3
22 8 2 -0.834000 19.136000 34.794998 11.874000 # 2OT TIP3
23 8 1 0.417000 18.882999 34.394001 12.844000 # 1HT TIP3
24 8 1 0.417000 18.372000 34.525002 11.161000 # 1HT TIP3
25 9 2 -0.834000 37.821999 26.083000 28.146999 # 2OT TIP3
26 9 1 0.417000 37.300999 25.153999 28.325001 # 1HT TIP3
27 9 1 0.417000 37.215000 26.723000 27.524000 # 1HT TIP3
28 10 2 -0.834000 22.040001 19.586000 37.944000 # 2OT TIP3
29 10 1 0.417000 22.066999 18.698999 37.327000 # 1HT TIP3
30 10 1 0.417000 22.999001 20.079000 37.909000 # 1HT TIP3
31 11 2 -0.834000 35.566002 35.404999 34.979000 # 2OT TIP3
32 11 1 0.417000 34.998001 35.127998 34.103001 # 1HT TIP3
33 11 1 0.417000 35.652000 36.480000 35.027000 # 1HT TIP3
34 12 2 -0.834000 3.909000 15.087000 16.525000 # 2OT TIP3
35 12 1 0.417000 4.052000 14.641000 17.497999 # 1HT TIP3
36 12 1 0.417000 4.316000 16.087000 16.524000 # 1HT TIP3
37 13 2 -0.834000 11.505000 17.277000 1.039000 # 2OT TIP3
38 13 1 0.417000 11.768000 17.916000 1.869000 # 1HT TIP3
39 13 1 0.417000 12.400000 16.995001 0.504000 # 1HT TIP3
40 14 2 -0.834000 14.445000 26.922001 5.005000 # 2OT TIP3
41 14 1 0.417000 13.555000 26.367001 5.263000 # 1HT TIP3
42 14 1 0.417000 14.746000 27.531000 5.845000 # 1HT TIP3
43 15 2 -0.834000 34.602001 24.857000 13.124000 # 2OT TIP3
44 15 1 0.417000 34.921001 25.656000 13.777000 # 1HT TIP3
45 15 1 0.417000 34.090000 24.101999 13.702000 # 1HT TIP3
46 16 2 -0.834000 12.426000 27.554001 37.650002 # 2OT TIP3
47 16 1 0.417000 12.140000 27.806999 36.639999 # 1HT TIP3
48 16 1 0.417000 11.548000 27.525999 38.277000 # 1HT TIP3
49 17 2 -0.834000 8.461000 5.750000 30.183001 # 2OT TIP3
50 17 1 0.417000 7.978000 4.851000 29.830000 # 1HT TIP3
51 17 1 0.417000 8.126000 5.970000 31.184999 # 1HT TIP3
52 18 2 -0.834000 25.725000 21.537001 0.864000 # 2OT TIP3
53 18 1 0.417000 25.100000 21.368000 -0.000000 # 1HT TIP3
54 18 1 0.417000 25.278000 22.294001 1.490000 # 1HT TIP3
55 19 2 -0.834000 25.753000 8.940000 16.534000 # 2OT TIP3
56 19 1 0.417000 26.230000 9.909000 16.527000 # 1HT TIP3
57 19 1 0.417000 25.410999 8.699000 15.539000 # 1HT TIP3
58 20 2 -0.834000 12.836000 8.502000 29.184000 # 2OT TIP3
59 20 1 0.417000 13.713000 8.929000 28.719999 # 1HT TIP3
60 20 1 0.417000 12.124000 8.225000 28.422001 # 1HT TIP3
61 21 2 -0.834000 35.639000 21.549999 15.525000 # 2OT TIP3
62 21 1 0.417000 35.306000 20.709999 14.933000 # 1HT TIP3
63 21 1 0.417000 36.707001 21.487000 15.670000 # 1HT TIP3
64 22 2 -0.834000 34.808998 32.950001 34.402000 # 2OT TIP3
65 22 1 0.417000 35.071999 31.981001 34.800999 # 1HT TIP3
66 22 1 0.417000 33.955002 33.339001 34.936001 # 1HT TIP3
67 23 2 -0.834000 21.114000 18.825001 29.636000 # 2OT TIP3
68 23 1 0.417000 21.857000 18.462000 28.941000 # 1HT TIP3
69 23 1 0.417000 20.472000 19.535999 29.139000 # 1HT TIP3
70 24 2 -0.834000 2.217000 23.302000 25.517000 # 2OT TIP3
71 24 1 0.417000 1.541000 22.488001 25.297001 # 1HT TIP3
72 24 1 0.417000 2.778000 23.554001 24.629999 # 1HT TIP3
73 25 2 -0.834000 25.509001 3.743000 4.212000 # 2OT TIP3
74 25 1 0.417000 24.753000 3.395000 3.522000 # 1HT TIP3
75 25 1 0.417000 25.396999 3.232000 5.156000 # 1HT TIP3
76 26 2 -0.834000 2.312000 0.307000 5.770000 # 2OT TIP3
77 26 1 0.417000 2.569000 1.206000 5.228000 # 1HT TIP3
78 26 1 0.417000 3.151000 -0.001000 6.375000 # 1HT TIP3
79 27 2 -0.834000 22.961000 27.731001 18.402000 # 2OT TIP3
80 27 1 0.417000 21.938999 27.996000 18.172001 # 1HT TIP3
81 27 1 0.417000 23.421000 27.283001 17.535000 # 1HT TIP3
82 28 2 -0.834000 0.410000 35.292999 32.963001 # 2OT TIP3
83 28 1 0.417000 1.271000 35.727001 32.476002 # 1HT TIP3
84 28 1 0.417000 0.642000 35.098999 33.999001 # 1HT TIP3
85 29 2 -0.834000 37.955002 32.785000 17.160999 # 2OT TIP3
86 29 1 0.417000 38.264999 33.099998 18.146000 # 1HT TIP3
87 29 1 0.417000 38.292000 31.775000 16.983000 # 1HT TIP3
88 30 2 -0.834000 24.288000 15.433000 32.101002 # 2OT TIP3
89 30 1 0.417000 24.297001 14.912000 31.153999 # 1HT TIP3
90 30 1 0.417000 23.496000 16.167000 32.099998 # 1HT TIP3
91 31 2 -0.834000 8.895000 34.337002 12.333000 # 2OT TIP3
92 31 1 0.417000 9.405000 33.395000 12.192000 # 1HT TIP3
93 31 1 0.417000 8.202000 34.250999 13.157000 # 1HT TIP3
94 32 2 -0.834000 15.288000 36.039001 0.993000 # 2OT TIP3
95 32 1 0.417000 14.885000 35.426998 0.200000 # 1HT TIP3
96 32 1 0.417000 14.585000 36.075001 1.812000 # 1HT TIP3
97 33 2 -0.834000 1.199000 2.515000 18.851999 # 2OT TIP3
98 33 1 0.417000 2.056000 3.097000 19.158001 # 1HT TIP3
99 33 1 0.417000 0.296000 2.987000 19.211000 # 1HT TIP3
100 34 2 -0.834000 10.306000 2.413000 9.225000 # 2OT TIP3
101 34 1 0.417000 10.091000 1.744000 10.045000 # 1HT TIP3
102 34 1 0.417000 9.443000 2.480000 8.580000 # 1HT TIP3
103 35 2 -0.834000 18.224001 21.205000 22.628000 # 2OT TIP3
104 35 1 0.417000 18.372999 21.239000 21.558001 # 1HT TIP3
105 35 1 0.417000 17.714001 22.101000 22.948999 # 1HT TIP3
106 36 2 -0.834000 11.375000 12.511000 33.250999 # 2OT TIP3
107 36 1 0.417000 10.389000 12.915000 33.431999 # 1HT TIP3
108 36 1 0.417000 12.118000 13.263000 33.471001 # 1HT TIP3
109 37 2 -0.834000 0.722000 36.035000 29.086000 # 2OT TIP3
110 37 1 0.417000 0.617000 34.987999 28.841999 # 1HT TIP3
111 37 1 0.417000 0.023000 36.293999 29.867001 # 1HT TIP3
112 38 2 -0.834000 29.438000 4.365000 30.466000 # 2OT TIP3
113 38 1 0.417000 29.959999 3.932000 31.308001 # 1HT TIP3
114 38 1 0.417000 30.145000 4.589000 29.681999 # 1HT TIP3
115 39 2 -0.834000 14.372000 0.957000 1.441000 # 2OT TIP3
116 39 1 0.417000 15.220000 0.412000 1.828000 # 1HT TIP3
117 39 1 0.417000 14.441000 1.015000 0.365000 # 1HT TIP3
118 40 2 -0.834000 22.781000 17.923000 7.356000 # 2OT TIP3
119 40 1 0.417000 23.218000 18.879999 7.599000 # 1HT TIP3
120 40 1 0.417000 22.014000 17.683001 8.077000 # 1HT TIP3
121 41 2 -0.834000 22.202000 23.195000 14.542000 # 2OT TIP3
122 41 1 0.417000 21.146000 22.982000 14.624000 # 1HT TIP3
123 41 1 0.417000 22.603001 23.406000 15.522000 # 1HT TIP3
124 42 2 -0.834000 0.274000 4.114000 33.903999 # 2OT TIP3
125 42 1 0.417000 0.366000 4.688000 32.993000 # 1HT TIP3
126 42 1 0.417000 -0.000000 4.770000 34.716999 # 1HT TIP3
127 43 2 -0.834000 22.840000 31.660000 17.870001 # 2OT TIP3
128 43 1 0.417000 22.115999 30.872000 17.726000 # 1HT TIP3
129 43 1 0.417000 23.402000 31.804001 16.959999 # 1HT TIP3
130 44 2 -0.834000 7.935000 35.620998 10.714000 # 2OT TIP3
131 44 1 0.417000 8.700000 35.025002 10.239000 # 1HT TIP3
132 44 1 0.417000 7.799000 36.539001 10.163000 # 1HT TIP3
133 45 2 -0.834000 17.351000 17.778000 1.188000 # 2OT TIP3
134 45 1 0.417000 16.291000 17.979000 1.142000 # 1HT TIP3
135 45 1 0.417000 17.538000 16.993999 1.906000 # 1HT TIP3
136 46 2 -0.834000 9.972000 8.973000 5.761000 # 2OT TIP3
137 46 1 0.417000 10.226000 10.020000 5.680000 # 1HT TIP3
138 46 1 0.417000 9.939000 8.533000 4.776000 # 1HT TIP3
139 47 2 -0.834000 34.084000 5.226000 29.153000 # 2OT TIP3
140 47 1 0.417000 34.681000 4.498000 29.681999 # 1HT TIP3
141 47 1 0.417000 33.935001 6.093000 29.778999 # 1HT TIP3
142 48 2 -0.834000 2.061000 8.075000 32.705002 # 2OT TIP3
143 48 1 0.417000 1.101000 8.569000 32.723000 # 1HT TIP3
144 48 1 0.417000 1.967000 7.126000 32.198002 # 1HT TIP3
145 49 2 -0.834000 7.863000 19.601000 12.707000 # 2OT TIP3
146 49 1 0.417000 8.161000 20.638000 12.745000 # 1HT TIP3
147 49 1 0.417000 7.450000 19.379999 11.734000 # 1HT TIP3
148 50 2 -0.834000 25.264000 4.889000 26.563000 # 2OT TIP3
149 50 1 0.417000 25.674999 5.868000 26.764000 # 1HT TIP3
150 50 1 0.417000 25.270000 4.302000 27.469000 # 1HT TIP3
151 51 2 -0.834000 35.124001 24.172001 16.181999 # 2OT TIP3
152 51 1 0.417000 34.768002 23.254999 16.629000 # 1HT TIP3
153 51 1 0.417000 34.743999 25.014999 16.740000 # 1HT TIP3
154 52 2 -0.834000 8.021000 3.902000 37.387001 # 2OT TIP3
155 52 1 0.417000 8.274000 4.952000 37.388000 # 1HT TIP3
156 52 1 0.417000 7.486000 3.660000 38.292999 # 1HT TIP3
157 53 2 -0.834000 23.051001 16.924999 11.907000 # 2OT TIP3
158 53 1 0.417000 23.865999 16.226999 11.784000 # 1HT TIP3
159 53 1 0.417000 22.552999 17.069000 10.960000 # 1HT TIP3
160 54 2 -0.834000 1.175000 33.066002 3.469000 # 2OT TIP3
161 54 1 0.417000 0.432000 32.390999 3.866000 # 1HT TIP3
162 54 1 0.417000 1.544000 32.682999 2.529000 # 1HT TIP3
163 55 2 -0.834000 15.270000 16.948000 3.158000 # 2OT TIP3
164 55 1 0.417000 15.186000 17.941000 3.573000 # 1HT TIP3
165 55 1 0.417000 14.601000 16.851000 2.316000 # 1HT TIP3
166 56 2 -0.834000 35.449001 29.903000 4.412000 # 2OT TIP3
167 56 1 0.417000 34.643002 29.660000 5.089000 # 1HT TIP3
168 56 1 0.417000 35.062000 29.986000 3.408000 # 1HT TIP3
169 57 2 -0.834000 20.676001 28.190001 22.941000 # 2OT TIP3
170 57 1 0.417000 19.684000 28.105000 23.360001 # 1HT TIP3
171 57 1 0.417000 21.058001 29.184000 23.118000 # 1HT TIP3
172 58 2 -0.834000 12.190000 10.485000 14.745000 # 2OT TIP3
173 58 1 0.417000 12.004000 9.485000 14.383000 # 1HT TIP3
174 58 1 0.417000 12.222000 10.477000 15.825000 # 1HT TIP3
175 59 2 -0.834000 30.034000 30.639999 7.238000 # 2OT TIP3
176 59 1 0.417000 30.097000 29.566000 7.333000 # 1HT TIP3
177 59 1 0.417000 30.538000 30.951000 6.335000 # 1HT TIP3
178 60 2 -0.834000 32.662998 20.986000 19.860001 # 2OT TIP3
179 60 1 0.417000 32.342999 20.141001 19.268000 # 1HT TIP3
180 60 1 0.417000 32.604000 21.885000 19.264999 # 1HT TIP3
181 61 2 -0.834000 24.341000 3.979000 11.136000 # 2OT TIP3
182 61 1 0.417000 24.360001 3.191000 10.397000 # 1HT TIP3
183 61 1 0.417000 24.533001 3.561000 12.113000 # 1HT TIP3
184 62 2 -0.834000 38.280998 1.411000 21.252001 # 2OT TIP3
185 62 1 0.417000 37.991001 0.377000 21.368999 # 1HT TIP3
186 62 1 0.417000 38.222000 1.685000 20.209000 # 1HT TIP3
187 63 2 -0.834000 27.841000 16.542999 1.453000 # 2OT TIP3
188 63 1 0.417000 27.891001 15.485000 1.667000 # 1HT TIP3
189 63 1 0.417000 28.687000 16.827999 0.846000 # 1HT TIP3
190 64 2 -0.834000 31.886000 7.701000 15.083000 # 2OT TIP3
191 64 1 0.417000 32.824001 8.228000 14.989000 # 1HT TIP3
192 64 1 0.417000 31.240999 8.234000 15.765000 # 1HT TIP3
193 65 2 -0.834000 31.219000 25.541000 31.680000 # 2OT TIP3
194 65 1 0.417000 31.971001 25.354000 32.431999 # 1HT TIP3
195 65 1 0.417000 30.252001 25.629999 32.152000 # 1HT TIP3
196 66 2 -0.834000 18.896999 37.458000 37.730000 # 2OT TIP3
197 66 1 0.417000 19.698999 36.969002 38.264000 # 1HT TIP3
198 66 1 0.417000 18.545000 38.303001 38.304001 # 1HT TIP3
199 67 2 -0.834000 21.642000 32.873001 37.043999 # 2OT TIP3
200 67 1 0.417000 21.021000 33.686001 36.698002 # 1HT TIP3
201 67 1 0.417000 21.017000 32.077000 37.421001 # 1HT TIP3
202 68 2 -0.834000 34.837002 34.487000 21.247999 # 2OT TIP3
203 68 1 0.417000 35.542999 33.821999 20.774000 # 1HT TIP3
204 68 1 0.417000 34.098000 34.800999 20.527000 # 1HT TIP3
205 69 2 -0.834000 27.495001 19.275999 9.256000 # 2OT TIP3
206 69 1 0.417000 28.452000 18.806000 9.083000 # 1HT TIP3
207 69 1 0.417000 27.223000 19.867001 8.395000 # 1HT TIP3
208 70 2 -0.834000 0.645000 34.622002 19.353001 # 2OT TIP3
209 70 1 0.417000 0.195000 33.655998 19.179001 # 1HT TIP3
210 70 1 0.417000 0.504000 34.904999 20.385000 # 1HT TIP3
211 71 2 -0.834000 5.134000 37.200001 2.047000 # 2OT TIP3
212 71 1 0.417000 4.098000 37.040001 2.310000 # 1HT TIP3
213 71 1 0.417000 5.663000 37.603001 2.896000 # 1HT TIP3
214 72 2 -0.834000 6.398000 0.727000 7.767000 # 2OT TIP3
215 72 1 0.417000 7.147000 0.000000 8.045000 # 1HT TIP3
216 72 1 0.417000 6.529000 1.001000 6.731000 # 1HT TIP3
217 73 2 -0.834000 31.948000 9.927000 8.105000 # 2OT TIP3
218 73 1 0.417000 32.646000 10.247000 8.866000 # 1HT TIP3
219 73 1 0.417000 31.674999 8.897000 8.278000 # 1HT TIP3
220 74 2 -0.834000 13.695000 12.620000 16.205999 # 2OT TIP3
221 74 1 0.417000 14.415000 11.911000 15.826000 # 1HT TIP3
222 74 1 0.417000 14.201000 13.533000 16.483999 # 1HT TIP3
223 75 2 -0.834000 29.480000 13.213000 4.104000 # 2OT TIP3
224 75 1 0.417000 28.724001 13.984000 4.145000 # 1HT TIP3
225 75 1 0.417000 29.017000 12.248000 4.246000 # 1HT TIP3
226 76 2 -0.834000 23.820999 33.575001 9.672000 # 2OT TIP3
227 76 1 0.417000 23.167999 32.823002 9.253000 # 1HT TIP3
228 76 1 0.417000 24.554001 33.865002 8.935000 # 1HT TIP3
229 77 2 -0.834000 10.820000 0.093000 6.900000 # 2OT TIP3
230 77 1 0.417000 10.712000 1.105000 7.261000 # 1HT TIP3
231 77 1 0.417000 11.751000 -0.000000 6.361000 # 1HT TIP3
232 78 2 -0.834000 9.792000 26.986000 35.166000 # 2OT TIP3
233 78 1 0.417000 10.180000 27.990000 35.259998 # 1HT TIP3
234 78 1 0.417000 10.308000 26.475000 34.367001 # 1HT TIP3
235 79 2 -0.834000 29.405001 27.297001 1.864000 # 2OT TIP3
236 79 1 0.417000 29.403000 27.745001 2.847000 # 1HT TIP3
237 79 1 0.417000 30.194000 26.563000 1.804000 # 1HT TIP3
238 80 2 -0.834000 22.716999 37.109001 1.560000 # 2OT TIP3
239 80 1 0.417000 22.179001 36.706001 2.405000 # 1HT TIP3
240 80 1 0.417000 23.532000 36.449001 1.304000 # 1HT TIP3
241 81 2 -0.834000 2.780000 33.285000 28.497000 # 2OT TIP3
242 81 1 0.417000 2.045000 32.917999 27.795000 # 1HT TIP3
243 81 1 0.417000 2.765000 32.672001 29.386000 # 1HT TIP3
244 82 2 -0.834000 29.246000 9.887000 12.302000 # 2OT TIP3
245 82 1 0.417000 29.730000 10.175000 11.380000 # 1HT TIP3
246 82 1 0.417000 28.652000 9.001000 12.134000 # 1HT TIP3
247 83 2 -0.834000 36.527000 14.304000 6.960000 # 2OT TIP3
248 83 1 0.417000 37.358002 13.614000 6.925000 # 1HT TIP3
249 83 1 0.417000 36.476002 14.853000 6.032000 # 1HT TIP3
250 84 2 -0.834000 33.383999 22.479000 31.285999 # 2OT TIP3
251 84 1 0.417000 32.637001 23.044001 31.823999 # 1HT TIP3
252 84 1 0.417000 33.320000 22.708000 30.233000 # 1HT TIP3
253 85 2 -0.834000 3.735000 32.717999 5.824000 # 2OT TIP3
254 85 1 0.417000 4.656000 32.926998 5.300000 # 1HT TIP3
255 85 1 0.417000 3.258000 33.646999 6.098000 # 1HT TIP3
256 86 2 -0.834000 30.087000 3.395000 20.666000 # 2OT TIP3
257 86 1 0.417000 29.134001 2.953000 20.416000 # 1HT TIP3
258 86 1 0.417000 30.754000 3.316000 19.820999 # 1HT TIP3
259 87 2 -0.834000 17.753000 25.861000 18.764000 # 2OT TIP3
260 87 1 0.417000 17.726000 25.132000 17.968000 # 1HT TIP3
261 87 1 0.417000 18.032000 25.375999 19.687000 # 1HT TIP3
262 88 2 -0.834000 15.770000 15.387000 37.647999 # 2OT TIP3
263 88 1 0.417000 15.770000 16.261999 38.279999 # 1HT TIP3
264 88 1 0.417000 15.762000 14.499000 38.263000 # 1HT TIP3
265 89 2 -0.834000 7.587000 30.037001 18.903000 # 2OT TIP3
266 89 1 0.417000 7.775000 29.039000 19.270000 # 1HT TIP3
267 89 1 0.417000 7.832000 30.087000 17.853001 # 1HT TIP3
268 90 2 -0.834000 31.715000 27.025999 21.174000 # 2OT TIP3
269 90 1 0.417000 31.222000 27.237000 20.237000 # 1HT TIP3
270 90 1 0.417000 32.500999 27.747999 21.337999 # 1HT TIP3
271 91 2 -0.834000 18.827999 32.294998 31.739000 # 2OT TIP3
272 91 1 0.417000 19.079000 33.342999 31.667999 # 1HT TIP3
273 91 1 0.417000 19.110001 31.923000 32.713001 # 1HT TIP3
274 92 2 -0.834000 26.459000 18.937000 4.673000 # 2OT TIP3
275 92 1 0.417000 25.731001 18.146000 4.776000 # 1HT TIP3
276 92 1 0.417000 26.167000 19.777000 5.286000 # 1HT TIP3
277 93 2 -0.834000 19.048000 9.258000 21.372999 # 2OT TIP3
278 93 1 0.417000 18.011999 9.489000 21.171000 # 1HT TIP3
279 93 1 0.417000 19.375999 8.469000 20.715000 # 1HT TIP3
280 94 2 -0.834000 12.546000 0.009000 9.837000 # 2OT TIP3
281 94 1 0.417000 11.891000 0.433000 9.090000 # 1HT TIP3
282 94 1 0.417000 12.043000 -0.000000 10.792000 # 1HT TIP3
283 95 2 -0.834000 6.628000 17.584000 21.580999 # 2OT TIP3
284 95 1 0.417000 6.941000 18.007999 22.524000 # 1HT TIP3
285 95 1 0.417000 5.582000 17.797001 21.421000 # 1HT TIP3
286 96 2 -0.834000 6.042000 15.098000 22.198999 # 2OT TIP3
287 96 1 0.417000 5.434000 14.206000 22.162001 # 1HT TIP3
288 96 1 0.417000 5.464000 15.912000 22.610001 # 1HT TIP3
289 97 2 -0.834000 25.792000 19.243000 13.137000 # 2OT TIP3
290 97 1 0.417000 25.445999 19.766001 14.016000 # 1HT TIP3
291 97 1 0.417000 26.294001 19.937000 12.480000 # 1HT TIP3
292 98 2 -0.834000 5.473000 37.255001 30.058001 # 2OT TIP3
293 98 1 0.417000 5.771000 38.278999 29.889000 # 1HT TIP3
294 98 1 0.417000 4.751000 36.962002 29.309999 # 1HT TIP3
295 99 2 -0.834000 25.520000 35.198002 21.528000 # 2OT TIP3
296 99 1 0.417000 24.566000 34.769001 21.798000 # 1HT TIP3
297 99 1 0.417000 25.410000 35.778999 20.625999 # 1HT TIP3
298 100 2 -0.834000 1.063000 33.319000 31.021000 # 2OT TIP3
299 100 1 0.417000 0.745000 33.272999 32.051998 # 1HT TIP3
300 100 1 0.417000 1.389000 34.321999 30.789000 # 1HT TIP3
301 101 2 -0.834000 11.810000 9.197000 31.094999 # 2OT TIP3
302 101 1 0.417000 11.781000 10.246000 30.841000 # 1HT TIP3
303 101 1 0.417000 10.810000 8.791000 31.065001 # 1HT TIP3
304 102 2 -0.834000 22.790001 36.896000 4.967000 # 2OT TIP3
305 102 1 0.417000 22.940001 37.668999 4.228000 # 1HT TIP3
306 102 1 0.417000 22.469000 35.987999 4.479000 # 1HT TIP3
307 103 2 -0.834000 13.835000 14.594000 6.810000 # 2OT TIP3
308 103 1 0.417000 13.090000 15.215000 6.336000 # 1HT TIP3
309 103 1 0.417000 14.149000 15.051000 7.737000 # 1HT TIP3
310 104 2 -0.834000 1.018000 14.002000 1.748000 # 2OT TIP3
311 104 1 0.417000 0.838000 13.992000 2.813000 # 1HT TIP3
312 104 1 0.417000 0.301000 13.362000 1.256000 # 1HT TIP3
313 105 2 -0.834000 6.748000 10.133000 16.785000 # 2OT TIP3
314 105 1 0.417000 6.304000 9.623000 17.627001 # 1HT TIP3
315 105 1 0.417000 7.823000 10.116000 16.879999 # 1HT TIP3
316 106 2 -0.834000 28.660999 1.721000 29.111000 # 2OT TIP3
317 106 1 0.417000 29.528999 2.324000 28.888000 # 1HT TIP3
318 106 1 0.417000 28.753000 1.313000 30.107000 # 1HT TIP3
319 107 2 -0.834000 23.646000 6.222000 21.705999 # 2OT TIP3
320 107 1 0.417000 24.625999 5.902000 21.385000 # 1HT TIP3
321 107 1 0.417000 23.448999 7.214000 21.327999 # 1HT TIP3
322 108 2 -0.834000 28.732000 29.193001 21.985001 # 2OT TIP3
323 108 1 0.417000 28.988001 28.284000 21.462000 # 1HT TIP3
324 108 1 0.417000 27.799999 29.580000 21.601000 # 1HT TIP3
325 109 2 -0.834000 32.771999 8.044000 10.069000 # 2OT TIP3
326 109 1 0.417000 32.835999 8.818000 10.820000 # 1HT TIP3
327 109 1 0.417000 33.161999 7.121000 10.470000 # 1HT TIP3
328 110 2 -0.834000 27.731001 28.223000 28.514999 # 2OT TIP3
329 110 1 0.417000 28.669001 27.768000 28.236000 # 1HT TIP3
330 110 1 0.417000 27.313999 28.739000 27.664000 # 1HT TIP3
331 111 2 -0.834000 24.452999 24.007999 24.683001 # 2OT TIP3
332 111 1 0.417000 24.589001 24.525999 23.745001 # 1HT TIP3
333 111 1 0.417000 24.583000 24.702000 25.500000 # 1HT TIP3
334 112 2 -0.834000 35.342999 33.610001 25.889999 # 2OT TIP3
335 112 1 0.417000 34.310001 33.296001 25.857000 # 1HT TIP3
336 112 1 0.417000 35.721001 33.713001 24.885000 # 1HT TIP3
337 113 2 -0.834000 13.250000 28.643999 0.997000 # 2OT TIP3
338 113 1 0.417000 13.610000 27.625999 0.963000 # 1HT TIP3
339 113 1 0.417000 12.991000 28.969000 0.001000 # 1HT TIP3
340 114 2 -0.834000 4.845000 15.085000 25.405001 # 2OT TIP3
341 114 1 0.417000 4.700000 14.797000 24.374001 # 1HT TIP3
342 114 1 0.417000 3.891000 15.105000 25.910999 # 1HT TIP3
343 115 2 -0.834000 16.660000 26.816999 15.554000 # 2OT TIP3
344 115 1 0.417000 16.922001 25.860001 15.980000 # 1HT TIP3
345 115 1 0.417000 15.647000 27.068001 15.829000 # 1HT TIP3
346 116 2 -0.834000 34.349998 36.160000 25.656000 # 2OT TIP3
347 116 1 0.417000 34.105999 35.438000 26.421000 # 1HT TIP3
348 116 1 0.417000 35.326000 35.939999 25.250999 # 1HT TIP3
349 117 2 -0.834000 7.834000 24.437000 3.545000 # 2OT TIP3
350 117 1 0.417000 7.966000 25.179001 4.319000 # 1HT TIP3
351 117 1 0.417000 7.565000 23.493000 3.995000 # 1HT TIP3
352 118 2 -0.834000 20.094999 32.911999 16.517000 # 2OT TIP3
353 118 1 0.417000 19.499001 33.160000 15.652000 # 1HT TIP3
354 118 1 0.417000 20.184999 31.839001 16.598000 # 1HT TIP3
355 119 2 -0.834000 37.625999 15.923000 29.621000 # 2OT TIP3
356 119 1 0.417000 36.917000 15.145000 29.863001 # 1HT TIP3
357 119 1 0.417000 37.348999 16.382999 28.684000 # 1HT TIP3
358 120 2 -0.834000 31.204000 8.930000 19.065001 # 2OT TIP3
359 120 1 0.417000 31.367001 9.889000 19.535999 # 1HT TIP3
360 120 1 0.417000 30.511999 8.351000 19.658001 # 1HT TIP3
361 121 2 -0.834000 1.404000 14.720000 12.444000 # 2OT TIP3
362 121 1 0.417000 2.171000 15.328000 12.901000 # 1HT TIP3
363 121 1 0.417000 1.777000 14.309000 11.517000 # 1HT TIP3
364 122 2 -0.834000 19.723000 24.224001 15.922000 # 2OT TIP3
365 122 1 0.417000 19.153000 25.066999 16.284000 # 1HT TIP3
366 122 1 0.417000 20.698999 24.225000 16.382999 # 1HT TIP3
367 123 2 -0.834000 36.005001 26.823000 35.323002 # 2OT TIP3
368 123 1 0.417000 36.259998 26.538000 36.333000 # 1HT TIP3
369 123 1 0.417000 36.658001 27.618999 34.999001 # 1HT TIP3
370 124 2 -0.834000 36.539001 13.274000 25.476999 # 2OT TIP3
371 124 1 0.417000 37.261002 12.478000 25.368000 # 1HT TIP3
372 124 1 0.417000 35.549999 12.852000 25.577000 # 1HT TIP3
373 125 2 -0.834000 36.140999 29.212999 15.840000 # 2OT TIP3
374 125 1 0.417000 35.696999 30.195999 15.790000 # 1HT TIP3
375 125 1 0.417000 36.096001 28.747000 14.868000 # 1HT TIP3
376 126 2 -0.834000 32.233002 1.710000 21.809999 # 2OT TIP3
377 126 1 0.417000 31.201000 1.622000 21.504000 # 1HT TIP3
378 126 1 0.417000 32.868000 1.245000 21.070999 # 1HT TIP3
379 127 2 -0.834000 30.889000 29.648001 20.552000 # 2OT TIP3
380 127 1 0.417000 31.631001 30.291000 20.101000 # 1HT TIP3
381 127 1 0.417000 30.826000 29.857000 21.608999 # 1HT TIP3
382 128 2 -0.834000 1.679000 27.190001 1.151000 # 2OT TIP3
383 128 1 0.417000 2.162000 26.783001 2.028000 # 1HT TIP3
384 128 1 0.417000 1.949000 26.604000 0.286000 # 1HT TIP3
385 129 2 -0.834000 10.483000 10.726000 10.660000 # 2OT TIP3
386 129 1 0.417000 10.319000 9.732000 11.049000 # 1HT TIP3
387 129 1 0.417000 10.495000 10.692000 9.581000 # 1HT TIP3
388 130 2 -0.834000 24.799000 33.377998 35.719002 # 2OT TIP3
389 130 1 0.417000 25.705999 33.020000 35.255001 # 1HT TIP3
390 130 1 0.417000 24.003000 33.393002 34.990002 # 1HT TIP3
391 131 2 -0.834000 20.476000 3.744000 35.765999 # 2OT TIP3
392 131 1 0.417000 19.625000 4.207000 36.244999 # 1HT TIP3
393 131 1 0.417000 20.139000 3.151000 34.930000 # 1HT TIP3
394 132 2 -0.834000 4.064000 35.025002 37.250000 # 2OT TIP3
395 132 1 0.417000 3.668000 34.752998 38.216999 # 1HT TIP3
396 132 1 0.417000 4.058000 36.099998 37.147999 # 1HT TIP3
397 133 2 -0.834000 11.853000 22.156000 21.180000 # 2OT TIP3
398 133 1 0.417000 11.777000 23.194000 20.893000 # 1HT TIP3
399 133 1 0.417000 11.514000 21.532000 20.367001 # 1HT TIP3
400 134 2 -0.834000 20.558001 23.245001 8.092000 # 2OT TIP3
401 134 1 0.417000 21.011999 22.332001 8.448000 # 1HT TIP3
402 134 1 0.417000 19.806999 23.010000 7.353000 # 1HT TIP3
403 135 2 -0.834000 -0.027000 29.291000 33.359001 # 2OT TIP3
404 135 1 0.417000 0.516000 30.063000 33.882999 # 1HT TIP3
405 135 1 0.417000 0.305000 28.322001 33.699001 # 1HT TIP3
406 136 2 -0.834000 27.870001 8.741000 37.280998 # 2OT TIP3
407 136 1 0.417000 27.247999 8.727000 38.164001 # 1HT TIP3
408 136 1 0.417000 27.368000 8.221000 36.479000 # 1HT TIP3
409 137 2 -0.834000 10.210000 36.409000 34.536999 # 2OT TIP3
410 137 1 0.417000 11.264000 36.444000 34.303001 # 1HT TIP3
411 137 1 0.417000 9.751000 37.349998 34.275002 # 1HT TIP3
412 138 2 -0.834000 13.340000 1.784000 3.733000 # 2OT TIP3
413 138 1 0.417000 14.124000 1.049000 3.625000 # 1HT TIP3
414 138 1 0.417000 13.103000 1.907000 4.779000 # 1HT TIP3
415 139 2 -0.834000 2.215000 7.094000 6.943000 # 2OT TIP3
416 139 1 0.417000 3.264000 6.843000 6.890000 # 1HT TIP3
417 139 1 0.417000 1.648000 6.398000 6.344000 # 1HT TIP3
418 140 2 -0.834000 36.632000 16.974001 31.584999 # 2OT TIP3
419 140 1 0.417000 35.778999 16.625000 31.023001 # 1HT TIP3
420 140 1 0.417000 37.296001 16.146000 31.784000 # 1HT TIP3
421 141 2 -0.834000 22.055000 29.664000 25.511999 # 2OT TIP3
422 141 1 0.417000 22.021999 28.612000 25.757000 # 1HT TIP3
423 141 1 0.417000 22.586000 29.799000 24.580999 # 1HT TIP3
424 142 2 -0.834000 3.682000 4.695000 6.662000 # 2OT TIP3
425 142 1 0.417000 2.760000 4.521000 7.197000 # 1HT TIP3
426 142 1 0.417000 4.232000 3.770000 6.582000 # 1HT TIP3
427 143 2 -0.834000 32.699001 21.032000 10.647000 # 2OT TIP3
428 143 1 0.417000 32.409000 20.013000 10.437000 # 1HT TIP3
429 143 1 0.417000 33.359001 21.386000 9.869000 # 1HT TIP3
430 144 2 -0.834000 4.844000 24.219000 20.247000 # 2OT TIP3
431 144 1 0.417000 4.720000 23.480000 19.468000 # 1HT TIP3
432 144 1 0.417000 5.346000 25.086000 19.844000 # 1HT TIP3
433 145 2 -0.834000 19.775000 10.298000 29.910999 # 2OT TIP3
434 145 1 0.417000 19.115000 10.031000 29.099001 # 1HT TIP3
435 145 1 0.417000 19.341000 11.108000 30.476999 # 1HT TIP3
436 146 2 -0.834000 33.717999 13.191000 28.000999 # 2OT TIP3
437 146 1 0.417000 33.084999 13.959000 28.421000 # 1HT TIP3
438 146 1 0.417000 34.463001 12.902000 28.726999 # 1HT TIP3
439 147 2 -0.834000 20.742001 27.437000 33.488998 # 2OT TIP3
440 147 1 0.417000 19.879999 26.816000 33.687000 # 1HT TIP3
441 147 1 0.417000 20.947001 28.052000 34.352001 # 1HT TIP3
442 148 2 -0.834000 14.767000 27.389000 26.898001 # 2OT TIP3
443 148 1 0.417000 15.806000 27.424000 26.606001 # 1HT TIP3
444 148 1 0.417000 14.175000 27.950001 26.190001 # 1HT TIP3
445 149 2 -0.834000 10.800000 14.710000 13.761000 # 2OT TIP3
446 149 1 0.417000 11.363000 14.634000 14.679000 # 1HT TIP3
447 149 1 0.417000 9.778000 14.408000 13.939000 # 1HT TIP3
448 150 2 -0.834000 2.509000 38.219002 7.703000 # 2OT TIP3
449 150 1 0.417000 2.922000 37.264999 7.409000 # 1HT TIP3
450 150 1 0.417000 1.464000 38.257999 7.434000 # 1HT TIP3
451 151 2 -0.834000 16.223000 30.344000 28.504999 # 2OT TIP3
452 151 1 0.417000 15.482000 31.016001 28.099001 # 1HT TIP3
453 151 1 0.417000 16.993000 30.167999 27.768000 # 1HT TIP3
454 152 2 -0.834000 29.971001 37.790001 25.488001 # 2OT TIP3
455 152 1 0.417000 30.188000 38.278999 24.549000 # 1HT TIP3
456 152 1 0.417000 29.134001 38.278999 25.962999 # 1HT TIP3
457 153 2 -0.834000 13.978000 34.312000 35.834999 # 2OT TIP3
458 153 1 0.417000 13.949000 33.537998 36.588001 # 1HT TIP3
459 153 1 0.417000 13.415000 35.167999 36.175999 # 1HT TIP3
460 154 2 -0.834000 12.693000 32.626999 22.176001 # 2OT TIP3
461 154 1 0.417000 11.876000 32.910000 21.528999 # 1HT TIP3
462 154 1 0.417000 12.323000 32.478001 23.179001 # 1HT TIP3
463 155 2 -0.834000 7.197000 17.297001 34.701000 # 2OT TIP3
464 155 1 0.417000 6.733000 16.458000 34.202999 # 1HT TIP3
465 155 1 0.417000 8.157000 17.497999 34.249001 # 1HT TIP3
466 156 2 -0.834000 30.541000 14.240000 24.938999 # 2OT TIP3
467 156 1 0.417000 29.700001 14.246000 25.615999 # 1HT TIP3
468 156 1 0.417000 30.719000 13.232000 24.594999 # 1HT TIP3
469 157 2 -0.834000 9.193000 25.737000 20.980000 # 2OT TIP3
470 157 1 0.417000 9.358000 26.802000 21.049999 # 1HT TIP3
471 157 1 0.417000 10.144000 25.226000 20.968000 # 1HT TIP3
472 158 2 -0.834000 25.513000 23.663000 12.852000 # 2OT TIP3
473 158 1 0.417000 26.355000 23.316000 12.271000 # 1HT TIP3
474 158 1 0.417000 25.245001 22.913000 13.582000 # 1HT TIP3
475 159 2 -0.834000 28.896999 29.700001 37.308998 # 2OT TIP3
476 159 1 0.417000 29.728001 29.792000 37.993000 # 1HT TIP3
477 159 1 0.417000 28.191999 28.978001 37.693001 # 1HT TIP3
478 160 2 -0.834000 1.915000 5.326000 16.954000 # 2OT TIP3
479 160 1 0.417000 2.573000 4.728000 17.568001 # 1HT TIP3
480 160 1 0.417000 1.959000 4.978000 15.933000 # 1HT TIP3
481 161 2 -0.834000 23.166000 16.975000 35.837002 # 2OT TIP3
482 161 1 0.417000 22.481001 17.695999 35.415001 # 1HT TIP3
483 161 1 0.417000 23.801001 16.583000 35.056999 # 1HT TIP3
484 162 2 -0.834000 9.291000 4.114000 15.236000 # 2OT TIP3
485 162 1 0.417000 10.317000 3.854000 15.447000 # 1HT TIP3
486 162 1 0.417000 8.749000 4.227000 16.163000 # 1HT TIP3
487 163 2 -0.834000 16.684000 17.247000 19.277000 # 2OT TIP3
488 163 1 0.417000 16.445999 18.087000 19.912001 # 1HT TIP3
489 163 1 0.417000 16.350000 17.450001 18.270000 # 1HT TIP3
490 164 2 -0.834000 36.901001 0.778000 27.090000 # 2OT TIP3
491 164 1 0.417000 36.340000 -0.001000 27.586000 # 1HT TIP3
492 164 1 0.417000 37.464001 1.337000 27.822001 # 1HT TIP3
493 165 2 -0.834000 15.702000 0.614000 29.343000 # 2OT TIP3
494 165 1 0.417000 15.453000 0.000000 28.490000 # 1HT TIP3
495 165 1 0.417000 16.153000 0.000000 30.108000 # 1HT TIP3
496 166 2 -0.834000 36.858002 2.743000 35.844002 # 2OT TIP3
497 166 1 0.417000 37.823002 2.563000 36.296001 # 1HT TIP3
498 166 1 0.417000 36.162998 3.075000 36.599998 # 1HT TIP3
499 167 2 -0.834000 29.257999 1.162000 4.148000 # 2OT TIP3
500 167 1 0.417000 29.719000 1.849000 4.842000 # 1HT TIP3
501 167 1 0.417000 28.829000 1.715000 3.326000 # 1HT TIP3
502 168 2 -0.834000 21.889999 33.046001 2.015000 # 2OT TIP3