LAMMPS data file via write_data, version 23 Jun 2022, timestep = 2000822

4500 atoms
2 atom types
3000 bonds
1 bond types
1500 angles
1 angle types

-0.8004260842563085 37.7874260842549 xlo xhi
-0.8085962787481051 37.7875962787423 ylo yhi
-0.8341281365272124 37.78812813651865 zlo zhi

Masses

1 15.9994
2 1.00794

Pair Coeffs # lj/cut/tip4p/long/gpu

1 0.16275 3.16435
2 0 0

Bond Coeffs # harmonic

1 250 0.9572

Angle Coeffs # harmonic

1 60 104.52

Atoms # full

286 96 1 -1.0484 34.88352338963445 4.7589660166870615 3.099861118472862 1 -1 0
287 96 2 0.5242 35.35572116081796 4.853126999940118 3.9271499115017505 1 -1 0
288 96 2 0.5242 35.31083539366436 4.02276362960524 2.6620788555251322 1 -1 0
1073 358 2 0.5242 4.469344874020927 1.401388033556692 -0.020508715735861105 5 4 1
1072 358 1 -1.0484 4.8828498624476255 2.2398017502290646 -0.2262245180015996 5 4 1
2638 880 1 -1.0484 2.941119011932468 3.9566899215031777 0.7792552987919652 -3 -1 2
2639 880 2 0.5242 2.366134105034677 3.7328446986328654 0.04745697609967858 -3 -1 2
2640 880 2 0.5242 3.458612087853 4.6961249992838185 0.46038106580922733 -3 -1 2
3718 1240 1 -1.0484 0.7886942160661041 5.219387390023618 2.3804608630214537 2 -3 2
3719 1240 2 0.5242 -0.052647475764925344 4.940532011113752 2.0190381159010307 2 -3 2
3720 1240 2 0.5242 1.3976528741379455 4.522420640611639 2.1362286385737557 2 -3 2
1672 558 1 -1.0484 0.34396370690461375 3.9776261273042532 4.875259390539111 2 1 -1
187 63 1 -1.0484 2.4212379907334003 2.6522420752395717 3.4274608291582362 0 4 6
189 63 2 0.5242 3.0398322220563525 2.88489034165268 2.7350311770989193 0 4 6
1674 558 2 0.5242 0.6161780640118706 4.6557686471174495 4.256982872236949 2 1 -1
1673 558 2 0.5242 0.5411034198527946 3.153632797375881 4.4298225383212015 2 1 -1
1074 358 2 0.5242 4.341701527623777 2.8904373413284947 0.22107325897451235 5 4 1
1742 581 2 0.5242 10.237314455868004 2.2374942701429257 1.7198764502107307 -3 -1 -4
2631 877 2 0.5242 10.578145998365454 2.2198786180363275 36.57309561293731 -1 -1 -1
2629 877 1 -1.0484 10.073244299098999 1.6777956843849204 37.179283010111526 -1 -1 -1
2630 877 2 0.5242 10.723040438328573 1.1062489552745312 37.588357713778855 -1 -1 -1
109 37 1 -1.0484 6.236909768605936 1.1008786440752436 1.8252220700856667 -1 0 1
110 37 2 0.5242 5.819892310049097 1.7566250112377442 1.2663512735483908 -1 0 1
3384 1128 2 0.5242 11.45552500615743 36.24357004083338 4.245364365650492 3 2 -2
111 37 2 0.5242 7.1363933355283065 1.41127100476294 1.9292823194030757 -1 0 1
1538 513 2 0.5242 13.34517385302567 5.7293378240034185 37.047042583697866 -4 0 2
3796 1266 1 -1.0484 12.028947746876064 0.10698243214875058 -0.683545434829509 2 0 6
3798 1266 2 0.5242 11.648641428470086 -0.5021493198997008 -0.050640662420753824 2 0 6
188 63 2 0.5242 2.3671077482043112 1.6973017848880256 3.3900104741059938 0 4 6
3830 1277 2 0.5242 7.400562027670853 4.527009499723956 2.6669797697036244 2 1 -3
2945 982 2 0.5242 4.470648080598152 6.727912119583641 2.330099894275975 0 -1 0
3004 1002 1 -1.0484 12.196484717196876 37.115149898366845 1.2889645573812465 -5 -2 -3
3005 1002 2 0.5242 12.63153756480989 37.59950799670563 1.990654718234755 -5 -2 -3
258 86 2 0.5242 18.174815770860242 4.021012864243791 5.809840004065211 -2 -2 -1
926 309 2 0.5242 16.15851147740325 1.6529690438902525 3.4918662431772907 -3 -1 -2
925 309 1 -1.0484 15.293069142114913 2.004917716617433 3.2835758402275426 -3 -1 -2
1732 578 1 -1.0484 10.462433653529569 4.367776656643165 4.439599983982169 -4 3 3
1734 578 2 0.5242 9.667136584078253 4.080724781446381 3.9908830687919563 -4 3 3
2587 863 1 -1.0484 17.978995297677756 2.1386209261368787 3.858945132878298 -3 -1 -2
3729 1243 2 0.5242 18.313133983297323 6.685366696153926 4.386830681436121 -5 0 0
2169 723 2 0.5242 11.311922711793613 4.5686697122506 1.019019350722154 -2 0 -1
2167 723 1 -1.0484 11.714976926652211 4.996902236599592 1.7742720304642323 -2 0 -1
2839 947 1 -1.0484 14.727796326241876 36.99959989501725 -0.056861004427751216 -2 -4 -2
2841 947 2 0.5242 14.85909769884309 -0.6578830600282222 0.07665860748759168 -2 -3 -2
2168 723 2 0.5242 12.65638979393083 4.925500037869844 1.616516443916138 -2 0 -1
3006 1002 2 0.5242 12.899192628281117 36.896323467094675 0.6769519771144756 -5 -2 -3
1733 578 2 0.5242 11.055972517676905 4.625956019316698 3.734406259299451 -4 3 3
3943 1315 1 -1.0484 16.80154314987426 7.188615682848779 1.2962079586099131 -4 -3 2
3944 1315 2 0.5242 17.30791241826815 6.709138240538408 1.951901903715016 -4 -3 2
2589 863 2 0.5242 18.60091866453497 1.728736779155048 4.460152120050744 -3 -1 -2
2588 863 2 0.5242 17.580177278816034 2.8431113617070367 4.3697097045197895 -3 -1 -2
2275 759 1 -1.0484 20.25891155397437 4.1520495520945575 5.533738681434904 2 0 2
2277 759 2 0.5242 21.195460561217168 3.9868166685438924 5.642443849525014 2 0 2
1006 336 1 -1.0484 19.24752727872577 6.203849712082146 7.9397954106057576 2 0 -1
1008 336 2 0.5242 18.684092923204453 6.174807795828372 7.166528948678611 2 0 -1
3727 1243 1 -1.0484 17.437497074915935 6.36752211421484 4.166655358569942 -5 0 0
2632 878 1 -1.0484 14.053326309787542 1.4173678794531988 0.8154574003390462 2 2 1
2633 878 2 0.5242 14.26024866212871 1.2956021879782122 1.742064254341865 2 2 1
2634 878 2 0.5242 14.27167681228338 2.3324874634936097 0.6390408156032004 2 2 1
2276 759 2 0.5242 20.211650818023003 4.832887504069143 4.862568876750192 2 0 2
2821 941 1 -1.0484 22.92619152431849 4.486641462092405 5.93034361822502 0 -5 2
63 21 2 0.5242 15.2456295869566 4.566021076328151 1.644865118024153 2 3 -1
61 21 1 -1.0484 14.67940198738389 4.47328446206003 0.8786868976378108 2 3 -1
1613 538 2 0.5242 18.069946550643742 37.515183091896496 4.206036474488685 2 3 2
3572 1191 2 0.5242 19.51942374569429 1.1371220017442751 6.075487494519788 1 -3 2
3554 1185 2 0.5242 20.784908572718106 3.200378068971572 4.288992817187662 2 -2 -2
2727 909 2 0.5242 17.23964775304753 0.12642602605791142 1.8877561187640168 -2 5 -5
2726 909 2 0.5242 18.112899729629067 -0.7727601349934332 1.0387461966456286 -2 5 -5
2725 909 1 -1.0484 17.24479425190595 -0.7187295614307444 1.4383917161819029 -2 5 -5
324 108 2 0.5242 20.205150736274618 1.4896692335252366 36.930154623109004 3 1 2
3553 1185 1 -1.0484 21.281319409160222 2.8557457027314626 3.5466665356447136 2 -2 -2
2823 941 2 0.5242 23.487653936932073 5.256557313350144 5.839611369545073 0 -5 2
2822 941 2 0.5242 22.88616985794604 4.328615161827857 6.873566360070017 0 -5 2
880 294 1 -1.0484 21.881075031745237 4.603037833268718 1.530165694509602 -5 3 1
1043 348 2 0.5242 27.3839231022501 5.904452666982283 -0.12898921255460227 0 -1 2
1042 348 1 -1.0484 28.2855029356772 6.003098834835285 0.17705937131368787 0 -1 2
1044 348 2 0.5242 28.644148946949414 5.1158456783194275 0.15710944998698684 0 -1 2
882 294 2 0.5242 22.553232417843706 4.947780646231933 2.1180428072169457 -5 3 1
2412 804 2 0.5242 25.50318941216616 37.53711543673775 37.76584966610267 -4 -2 -3
2411 804 2 0.5242 26.326305415071026 -0.40935879455620494 36.67393920110695 -4 -1 -3
3377 1126 2 0.5242 24.928555331035223 3.8439133694465273 3.5934048642101812 -3 4 2
3376 1126 1 -1.0484 24.46775060264667 3.03317346299213 3.8092811806539784 -3 4 2
1018 340 1 -1.0484 27.990309544352932 1.0702138606838831 0.6759872327408238 3 4 3
650 217 2 0.5242 30.07869360900661 1.9860928495512153 2.864711915962189 -5 2 5
649 217 1 -1.0484 29.4301802967851 2.630388779871586 2.5808880431743177 -5 2 5
3378 1126 2 0.5242 24.69102959371394 2.866775296917077 4.72508731382336 -3 4 2
651 217 2 0.5242 29.85037741504426 3.0895138124389243 1.8536449012910894 -5 2 5
3555 1185 2 0.5242 22.196830481351974 3.0182476286777784 3.77398955721059 2 -2 -2
3851 1284 2 0.5242 25.460022138109785 2.727609259165768 1.7757225418871627 1 -1 -1
3852 1284 2 0.5242 25.254485782156078 1.7374760121052542 0.6490844661901454 1 -1 -1
3850 1284 1 -1.0484 25.65964628255277 2.580839062801633 0.8511407068402679 1 -1 -1
3328 1110 1 -1.0484 29.996804944225616 -0.6095765070805996 1.2227044107780705 -2 -1 -1
3330 1110 2 0.5242 29.094715566180316 -0.33758256669627146 1.0538924496277056 -2 -1 -1
3329 1110 2 0.5242 29.934859373178817 37.40855471443551 1.9831324810418325 -2 -2 -1
1662 554 2 0.5242 35.09142309938302 37.125791976970746 37.421934477349595 3 0 -1
793 265 1 -1.0484 34.61405026820165 2.666602962293973 0.16903002306588033 1 2 3
794 265 2 0.5242 34.517873639028444 2.3303710155371173 1.060063833657394 1 2 3
795 265 2 0.5242 33.96275527137501 2.1848685335775144 -0.34086262422289765 1 2 3
2913 971 2 0.5242 31.403693163553363 4.554134314910468 0.5404542630405487 1 -3 0
2911 971 1 -1.0484 30.969169122237744 3.7013993424687923 0.5570519566158472 1 -3 0
2912 971 2 0.5242 31.008705299908243 3.3942348334235257 -0.34866908562369386 1 -3 0
382 128 1 -1.0484 36.78103124322208 1.5331618998353198 5.562843515346963 1 0 1
384 128 2 0.5242 37.58382376795216 1.0124999201221139 5.536805610143873 1 0 1
383 128 2 0.5242 36.328133324361445 1.2365795039773166 6.35225165910423 1 0 1
2852 951 2 0.5242 32.498554522243246 2.7951302531826934 2.5386175475141433 -2 3 5
2853 951 2 0.5242 33.879262732688666 2.4575350147519845 3.059767090471731 -2 3 5
2851 951 1 -1.0484 33.045785811576565 2.05830790937054 2.8104143590731328 -2 3 5
1020 340 2 0.5242 28.280124800570615 1.43986830630848 1.5100167330698335 3 4 3
1019 340 2 0.5242 27.124057272104643 1.4513913539793242 0.5326235319940096 3 4 3
2861 954 2 0.5242 31.37027846881 37.0700508292426 3.564159574333594 -1 -1 -2
2860 954 1 -1.0484 32.22164092289603 37.31210443454075 3.9286256200244107 -1 -1 -2
1494 498 2 0.5242 31.85173754892392 0.4402438628123069 0.47205632192892466 3 -3 6
2672 891 2 0.5242 1.0600793223961709 36.21033146184081 5.053032583927453 -2 0 1
2673 891 2 0.5242 0.14736344339038976 37.41814923809152 5.060000329025065 -2 0 1
2671 891 1 -1.0484 0.352102643629282 36.626953476162505 4.561669186344135 -2 0 1
571 191 1 -1.0484 37.163165939488096 1.815156785343175 -0.3187442228374884 0 6 -2
941 314 2 0.5242 33.312197956925026 6.070692905290484 1.5720559367919034 -3 0 1
4066 1356 1 -1.0484 2.380410812180876 9.224435856787437 4.252937590599537 -4 3 0
4067 1356 2 0.5242 2.5334372787862103 10.063654126631832 4.687148157377378 -4 3 0
4068 1356 2 0.5242 2.0002096278055976 9.45816478491691 3.406142907589718 -4 3 0
735 245 2 0.5242 7.816350052940242 10.39115333016125 5.078565233291307 -2 0 3
2576 859 2 0.5242 1.8101396679594544 6.567845777501338 1.290162103914792 0 -2 -1
2577 859 2 0.5242 1.5932681757273586 8.05696435952777 1.4557369735773342 0 -2 -1
2575 859 1 -1.0484 2.2699194390092488 7.407048680363356 1.2660123790598146 0 -2 -1
733 245 1 -1.0484 7.840443862884536 9.793687408612666 4.331104888299334 -2 0 3
734 245 2 0.5242 8.39803603523348 10.234093568991797 3.6897171178715666 -2 0 3
2018 673 2 0.5242 2.4696178565267335 6.085321930680627 5.702040643487266 1 4 -2
2017 673 1 -1.0484 3.0182625922045294 6.059849992715575 6.485994140997132 1 4 -2
1743 581 2 0.5242 9.651862751732624 2.3121901497678095 0.325749492868586 -3 -1 -4
1741 581 1 -1.0484 9.432088791584444 2.4486022972805324 1.2473430647991224 -3 -1 -4
1537 513 1 -1.0484 12.872908967382513 5.080439854934652 36.52537196329611 -4 0 2
1539 513 2 0.5242 13.34639303116288 5.050176270961881 35.6940234457789 -4 0 2
2019 673 2 0.5242 3.8694839998978052 6.385951951814479 6.193893107604717 1 4 -2
4460 1487 2 0.5242 11.864261232360922 12.566079336012763 4.354197206625447 1 -3 0
4459 1487 1 -1.0484 11.061978027194916 12.100488025131993 4.590436683135566 1 -3 0
3018 1006 2 0.5242 7.028268297077885 3.6250004432108014 4.80118653935887 -1 3 -4
3017 1006 2 0.5242 6.198668809498857 4.749660573628012 5.3832750507920455 -1 3 -4
2087 696 2 0.5242 10.172908403887885 10.886561323463841 36.47091789065223 -2 6 -1
3939 1313 2 0.5242 4.274075997467387 8.362007946288212 4.45826581052515 1 -2 3
3938 1313 2 0.5242 5.5087320687863714 7.53183217624054 4.178345337149951 1 -2 3
3937 1313 1 -1.0484 4.8571108790881095 7.71488941698667 4.855192951393384 1 -2 3
2946 982 2 0.5242 4.826281894983989 5.574251597932609 1.4165825697965384 0 -1 0
4263 1421 2 0.5242 7.962222644350216 9.308095247516126 37.15400327476111 4 1 1
4261 1421 1 -1.0484 8.620030684249311 9.370302537685983 36.4614273358729 4 1 1
4262 1421 2 0.5242 8.75857979258667 8.46592255197723 36.180102331337395 4 1 1
883 295 1 -1.0484 15.290412899997719 9.9753570029258 -0.10328945672732281 3 3 1
884 295 2 0.5242 14.470081392847078 9.91012498453792 -0.5922106367437994 3 3 1
1415 472 2 0.5242 15.971033855033436 9.989939831784838 2.7265841696433837 1 -4 0
1414 472 1 -1.0484 15.742030921425204 10.748834387960938 3.2631279979007903 1 -4 0
4028 1343 2 0.5242 13.084780824334016 8.554766516058189 4.531970585091916 -1 3 2
3016 1006 1 -1.0484 6.474977915862029 3.8484299042494703 5.549646402197525 -1 3 -4
2428 810 1 -1.0484 10.72607036823252 9.281382073547938 5.182472136881266 6 2 -1
2429 810 2 0.5242 9.808352543357962 9.348398106136889 4.91875667457932 6 2 -1
2430 810 2 0.5242 11.025939081086426 10.18854678156438 5.240558161283764 6 2 -1
1416 472 2 0.5242 15.417992941486286 11.396374010969073 2.6370813151613746 1 -4 0
4310 1437 2 0.5242 14.799700877784423 10.288263049725325 35.557993761101756 2 2 2
4309 1437 1 -1.0484 15.024390642469603 11.120967944364244 35.14283111204469 2 2 2
4311 1437 2 0.5242 15.112913450237826 11.735975989971333 35.87095989920766 2 2 2
364 122 1 -1.0484 11.662842362196104 8.197991628239574 0.8849840335264085 -2 3 1
366 122 2 0.5242 12.137726855181723 7.372746036090248 0.7865112865906079 -2 3 1
3896 1299 2 0.5242 11.768680385695173 12.181428111607222 1.5659832678025096 -1 -3 0
3396 1132 2 0.5242 18.66732975820015 10.01057387314186 -0.6687453673632211 1 1 2
3945 1315 2 0.5242 17.352981908760942 7.936710843008111 1.0670533929059256 -4 -3 2
3952 1318 1 -1.0484 19.235593944031987 10.257603939426726 4.6392180365228946 -1 0 3
354 118 2 0.5242 23.08423650331358 5.647403818939087 35.38927122459457 -2 2 4
1374 458 2 0.5242 23.890354870780495 14.36026929379934 2.4212125760980583 1 0 2
1372 458 1 -1.0484 23.938406007610443 13.645683098410107 3.056272191268191 1 0 2
352 118 1 -1.0484 22.201215213395606 5.821199252549131 35.715325347079606 -2 2 4
353 118 2 0.5242 21.817280288639044 4.95364095618564 35.842523263247166 -2 2 4
333 111 2 0.5242 25.482745708409173 10.101891953463497 3.987800800690862 -4 -3 3
62 21 2 0.5242 15.153746716358393 4.915695573400935 0.17476032879356995 2 3 -1
314 105 2 0.5242 20.382878590272476 9.20319368794888 1.8918486306183846 4 -6 0
586 196 1 -1.0484 19.336441444283604 12.84045145533033 1.8858334415467009 0 4 -4
885 295 2 0.5242 15.958184696927223 10.12145563399177 -0.7733481730816348 3 3 1
3954 1318 2 0.5242 19.612636934825044 10.894094218520118 5.246641392692769 -1 0 3
2282 761 2 0.5242 21.040690110251155 7.49466503566558 4.974820870801396 1 0 -2
2281 761 1 -1.0484 20.155734399353506 7.661963606550941 4.650616884250781 1 0 -2
331 111 1 -1.0484 25.79944543902354 9.310531459714907 4.423338600028934 -4 -3 3
3953 1318 2 0.5242 18.395449166454352 10.019958515931364 5.031549780212653 -1 0 3
3308 1103 2 0.5242 15.349975550821217 7.209872366099004 -0.17950574155882493 -2 7 -2
315 105 2 0.5242 19.290141708547402 9.271778997051243 2.937384050919594 4 -6 0
313 105 1 -1.0484 19.45140717281752 9.028137766154718 2.0258606190268433 4 -6 0
587 196 2 0.5242 19.295823256443768 11.884113254731556 1.8826370901503857 0 4 -4
3520 1174 1 -1.0484 25.29293629227176 6.485412557910109 5.334144273591855 0 1 2
3522 1174 2 0.5242 25.8748491847738 5.869473754012152 4.888903224434598 0 1 2
3521 1174 2 0.5242 25.542174979996062 7.342947047632537 4.98953292545511 0 1 2
774 258 2 0.5242 23.956485872604066 6.212426370685483 3.782754847540155 4 3 2
881 294 2 0.5242 21.65637306806684 3.7482074014935582 1.8976117551075817 -5 3 1
773 258 2 0.5242 24.207487127122107 6.383142197921719 2.2995904525923057 4 3 2
772 258 1 -1.0484 23.805518248830165 5.792015715526322 2.9361698262325775 4 3 2
3542 1181 2 0.5242 26.023531181054 13.033241067895005 0.15403798454523598 0 5 4
4122 1374 2 0.5242 32.30063142417045 4.3413905463742255 35.93637636022804 -1 3 -4
4120 1374 1 -1.0484 31.524614809861866 3.781053827388531 35.94436079717373 -1 3 -4
4121 1374 2 0.5242 30.85854762369455 4.286899258887665 35.478831341535276 -1 3 -4
663 221 2 0.5242 23.496965421614416 10.774117166228846 37.22301080525784 0 -1 -2
332 111 2 0.5242 26.38126054690819 9.632127628306636 5.112040568155092 -4 -3 3
2889 963 2 0.5242 24.132639661116258 7.817653672393218 0.5985103709042405 -1 -1 1
2887 963 1 -1.0484 24.52957488802785 7.890298388613573 1.4665013602678512 -1 -1 1
3618 1206 2 0.5242 21.511011648770225 8.667273257360662 0.44249603238309954 2 -2 2
1600 534 1 -1.0484 25.64523045803749 7.0676405556920345 37.040522720490536 7 2 1
1602 534 2 0.5242 26.061409385722552 6.205777637899581 37.05571497238191 7 2 1
1601 534 2 0.5242 26.181796959598973 7.582654554639852 36.437944651727754 7 2 1
1553 518 2 0.5242 21.82831537620658 5.66788638699969 -0.027094332829041168 0 3 -5
3617 1206 2 0.5242 22.67175266790031 8.642458783486056 1.4140860015546206 2 -2 2
3616 1206 1 -1.0484 21.924377646559748 9.174570238983456 1.1410818466290622 2 -2 2
1552 518 1 -1.0484 21.93079541914966 6.5341394882627 -0.42123467010970195 0 3 -5
1575 525 2 0.5242 30.29622278551647 7.6661464888718704 2.0534714326128114 1 1 0
1573 525 1 -1.0484 30.314201587654058 7.745580670274705 1.0997367497808812 1 1 0
67 23 1 -1.0484 36.264581152621716 7.5021563665568465 1.4306865825384838 -3 0 4
69 23 2 0.5242 35.99969750371535 8.329922632748431 1.8317883982929044 -3 0 4
1574 525 2 0.5242 29.78589485745372 7.01088066456794 0.787724669400955 1 1 0
68 23 2 0.5242 35.89964691283001 6.82934133112916 2.0054784260591703 -3 0 4
2130 710 2 0.5242 31.800846781802655 8.984933229092949 0.8196429592364209 2 -1 1
2128 710 1 -1.0484 32.57422461465648 9.37465185524266 0.4119056700337631 2 -1 1
2129 710 2 0.5242 32.45314374031887 9.223608544302344 -0.5255207862575575 2 -1 1
1196 399 2 0.5242 29.0628214063067 10.674062875654094 36.433030549323924 1 3 -3
1197 399 2 0.5242 28.058814880617085 11.654402145624175 35.86485081447932 1 3 -3
2670 890 2 0.5242 35.52790577478679 10.52764432094921 2.5280784351213703 -4 1 3
2669 890 2 0.5242 36.502590576728124 10.068134818691052 3.5914519563003937 -4 1 3
2668 890 1 -1.0484 36.32035059600853 10.005667020973673 2.65383261123468 -4 1 3
2335 779 1 -1.0484 36.554857739258495 4.694346115121852 5.5271108435653 -2 2 1
2337 779 2 0.5242 37.2347378549657 4.0792749059012525 5.251986827083533 -2 2 1
2336 779 2 0.5242 37.02658311003484 5.506365209523015 5.712429366016924 -2 2 1
940 314 1 -1.0484 33.608294667508176 5.657907696257744 0.7607742042514887 -3 0 1
942 314 2 0.5242 34.253926454182945 5.009991827734126 1.0429218169384953 -3 0 1
183 61 2 0.5242 35.93351243476622 10.941110342215945 36.60543015682974 -1 2 -1
4082 1361 2 0.5242 0.023266076361472265 13.254574441894722 35.444808744046924 0 -3 4
1813 605 1 -1.0484 5.773183789671549 10.90306924363404 2.721733526647125 -3 -1 0
1815 605 2 0.5242 5.3987479855591385 11.55577449356392 3.313355242473329 -3 -1 0
1814 605 2 0.5242 6.43072310773198 10.449938081319464 3.2495181396344064 -3 -1 0
1124 375 2 0.5242 -0.15099263695008047 13.424144249882264 -0.35684454950194067 3 -4 -1
1123 375 1 -1.0484 0.1880803508233222 13.334059406967208 0.5337493535392634 3 -4 -1
1125 375 2 0.5242 1.0589584783274553 13.729895073130045 0.5001600171332699 3 -4 -1
1141 381 1 -1.0484 2.818167009967914 11.73495205471878 5.513318707588251 -2 -5 2
1143 381 2 0.5242 2.1185157721549253 11.70208571582346 6.1657376319745705 -2 -5 2
4426 1476 1 -1.0484 5.4055848043124985 12.694924976199445 0.2044957075288174 1 5 3
4428 1476 2 0.5242 5.292564654962454 13.507479535908123 0.697673263105584 1 5 3
4427 1476 2 0.5242 5.475417795993428 12.015121309225467 0.8747442018182023 1 5 3
1297 433 1 -1.0484 0.1538996479093483 14.893501157573768 4.275850057144545 0 -2 3
3860 1287 2 0.5242 0.5612051866505452 12.109617230978108 2.767707704384487 7 0 -2
3114 1038 2 0.5242 7.683713987033077 17.87365789529249 3.81561811709945 1 4 -2
1142 381 2 0.5242 2.450810774789602 12.24734257132588 4.793077088745309 -2 -5 2
4359 1453 2 0.5242 6.3648057326016945 9.926623763960835 0.13420364000830132 -1 -2 4
717 239 2 0.5242 0.6380937383891829 16.255091999445675 37.46198160469576 3 1 0
4358 1453 2 0.5242 6.809314554760494 8.829054418155486 1.0774300619823023 -1 -2 4
4357 1453 1 -1.0484 6.76134820753052 9.055539109349345 0.14864226337635644 -1 -2 4
1652 551 2 0.5242 1.2573576653542466 16.221270454856164 1.8287802469098557 -2 0 3
1653 551 2 0.5242 2.0823838399365404 16.726841451076616 0.6644554911444374 -2 0 3
1651 551 1 -1.0484 1.416605315459456 16.079139397544825 0.8956769569399889 -2 0 3
3159 1053 2 0.5242 8.68200172548397 12.456991314777856 36.1530853528925 -2 4 -1
3157 1053 1 -1.0484 7.7699137057463155 12.16658192096708 36.152293916277586 -2 4 -1
928 310 1 -1.0484 9.570307337117155 10.952801260661987 2.6307988591899982 2 1 -3
929 310 2 0.5242 9.692880932382678 11.69919853889108 2.0441903625664892 2 1 -3
930 310 2 0.5242 10.156540975597911 11.127405539134742 3.367063908231118 2 1 -3
2227 743 1 -1.0484 8.363013070724811 13.73372599523205 1.448082308244122 2 -2 -3
2229 743 2 0.5242 7.652172441439417 13.32849655115314 0.951354987641446 2 -2 -3
608 203 2 0.5242 11.070966570235681 14.586914818573918 0.9212988103280151 -1 3 -5
609 203 2 0.5242 10.132440196985083 13.523894187959808 1.4514663284516893 -1 3 -5
3158 1053 2 0.5242 7.822107437762115 11.211539542859212 36.18988042943569 -2 4 -1
607 203 1 -1.0484 11.055077241711475 13.691571531816926 1.2594563954208202 -1 3 -5
4185 1395 2 0.5242 11.957135483316792 14.92935420522462 3.953613849178243 2 -4 2
3264 1088 2 0.5242 13.941743398020412 14.974396152621798 2.553175569150636 2 0 0
3262 1088 1 -1.0484 13.495418272198172 14.140600714029695 2.700897415982361 2 0 0
3263 1088 2 0.5242 12.947973971485576 14.02065376454391 1.9249073238148333 2 0 0
2086 696 1 -1.0484 10.759600703646827 11.642744774198784 36.48581550208409 -2 6 -1
2228 743 2 0.5242 8.529390302961454 14.561506797283977 0.9971482246533112 2 -2 -3
3113 1038 2 0.5242 8.052650208255624 19.000362675015733 4.757076550777418 1 4 -2
66 22 2 0.5242 11.267791586508272 18.936449258805812 6.038147744687498 4 -4 -2
2088 696 2 0.5242 10.870140846247958 11.878913104815066 35.56481066842149 -2 6 -1
3318 1106 2 0.5242 5.487022736705223 16.29664077482216 37.549602499970455 3 -2 1
2568 856 2 0.5242 12.859699578202354 18.928969046515324 3.9350547444798787 -3 3 -1
1213 405 1 -1.0484 10.762362679131604 17.045948225241546 1.5228667109382008 0 1 4
1214 405 2 0.5242 11.394766949099504 16.97155929997735 0.8081817791996224 0 1 4
4051 1351 1 -1.0484 16.250842046647172 15.926253014022993 2.459288857300995 1 7 1
4052 1351 2 0.5242 17.048995662444554 16.074440653639712 1.9521064499561653 1 7 1
1975 659 1 -1.0484 16.68182016429775 12.654680038081292 5.13498870673303 -3 0 2
1215 405 2 0.5242 10.143391327645253 17.713509677643966 1.2270975744583454 0 1 4
4053 1351 2 0.5242 15.732274043029662 16.720049958975757 2.328078342622604 1 7 1
1254 418 2 0.5242 19.36530545450315 14.704660418523476 5.15736548820476 1 0 -2
1252 418 1 -1.0484 18.78727353046095 14.737071034787007 4.395084944658692 1 0 -2
1253 418 2 0.5242 19.1264699784899 14.061583889144536 3.807797759958678 1 0 -2
1977 659 2 0.5242 17.143541411060024 13.270248275835963 4.565662685113948 -3 0 2
1976 659 2 0.5242 16.269394331986923 12.034626465806978 4.533588663655311 -3 0 2
3315 1105 2 0.5242 17.472797905425878 16.591513938305035 5.974952529444999 -3 3 -3
3314 1105 2 0.5242 17.671281482259086 16.203753616652293 4.525066889236351 -3 3 -3
2334 778 2 0.5242 17.38413698518881 12.199920593892267 -0.1854705344711136 -1 -3 -1
3409 1137 1 -1.0484 23.15865858752068 15.082103941865928 5.167192377900213 -2 1 0
3411 1137 2 0.5242 22.59027400660077 15.773796521525881 4.828454954089613 -2 1 0
1373 458 2 0.5242 24.66368040917938 13.101068290599153 2.750307142299487 1 0 2
1843 615 1 -1.0484 20.408813367620628 11.908725977788524 6.372030711482246 -3 1 4
1844 615 2 0.5242 19.650923072933868 12.08700023333442 6.928864295468833 -3 1 4
3410 1137 2 0.5242 23.510355690039795 14.656156516729515 4.385450288055394 -2 1 0
1503 501 2 0.5242 21.122842289119408 16.55267878628481 3.2021660243424757 1 3 0
588 196 2 0.5242 18.509104916749852 13.11711377928819 1.4918603345039387 0 4 -4
1502 501 2 0.5242 21.89971125939799 17.67635249382495 2.5496672358003165 1 3 0
3577 1193 1 -1.0484 18.184473917377293 16.782219573744936 8.234895461565793 -2 -3 4
3579 1193 2 0.5242 17.350624725325265 16.315541483816972 8.291020762420597 -2 -3 4
3578 1193 2 0.5242 18.000356666830424 17.536034791022935 7.674443604188685 -2 -3 4
1501 501 1 -1.0484 22.006969964677054 16.808721690915398 2.939481597716118 1 3 0
2148 716 2 0.5242 21.06686941964937 12.246411137975167 37.57571892740991 1 2 -4
2146 716 1 -1.0484 20.444478693648072 11.877957042814609 36.948730544280856 1 2 -4
2147 716 2 0.5242 20.68400353061021 10.953194774679302 36.88802173704321 1 2 -4
3543 1181 2 0.5242 25.2809332624792 11.713980821047072 0.15887262538370872 0 5 4
3541 1181 1 -1.0484 25.816635942598932 12.283103779377639 0.7114706254149601 0 5 4
3782 1261 2 0.5242 24.234920072911844 16.493324764482463 1.8871768731552767 -2 0 -1
3783 1261 2 0.5242 23.911544437363244 16.626379182357997 0.4142045971052919 -2 0 -1
4270 1424 1 -1.0484 27.964354289661248 14.809454229568768 4.217474840875041 2 -1 1
3781 1261 1 -1.0484 24.250900129896607 16.008660786319354 1.06189625908496 -2 0 -1
1984 662 1 -1.0484 25.886717925167954 18.711480898333495 4.352942473681846 -2 3 -3
1986 662 2 0.5242 24.96172542380852 18.933369605705817 4.459704994924916 -2 3 -3
459 153 2 0.5242 26.583974992697357 12.085484491347895 2.5742154797604693 -4 1 1
457 153 1 -1.0484 26.553229169105435 11.920658243535696 3.5166219693245635 -4 1 1
1532 511 2 0.5242 26.81542596767274 16.00078934926437 3.3917595302853147 0 -1 3
1531 511 1 -1.0484 26.289117099725146 16.6199484755565 2.885909963151704 0 -1 3
1533 511 2 0.5242 26.05929821676498 17.306857349495942 3.511675301212131 0 -1 3
4272 1424 2 0.5242 28.919406007030112 14.873216859867314 4.2100878955156755 2 -1 1
3002 1001 2 0.5242 30.479734801696733 17.648661702186246 36.108190441252205 3 -1 3
3001 1001 1 -1.0484 30.049794376385975 18.353179876154478 35.623372500464285 3 -1 3
4015 1339 1 -1.0484 26.87980077558175 15.205879451552214 0.3257398446067412 -4 -2 3
4017 1339 2 0.5242 26.07104451712496 15.43649827290707 0.7828732548131192 -4 -2 3
4016 1339 2 0.5242 27.399977629194336 14.738454040976276 0.9793237530952505 -4 -2 3
2393 798 2 0.5242 25.959253336983252 16.299673858932714 6.977664585362962 2 -3 -1
2392 798 1 -1.0484 26.33549432377206 15.750576511669689 6.289785266766265 2 -3 -1
458 153 2 0.5242 27.23251933772235 12.487682203978888 3.8817131405609224 -4 1 1
3188 1063 2 0.5242 32.677272571330754 11.155726986365211 0.7076860560443929 0 1 0
1195 399 1 -1.0484 28.83399417603042 11.603471773502589 36.42408777726081 1 3 -3
4271 1424 2 0.5242 27.719805756539273 14.97513610191901 5.1279630700087635 2 -1 1
3187 1063 1 -1.0484 32.59105948501921 12.105292699525656 0.7921541241114549 0 1 0
3189 1063 2 0.5242 31.72358693606551 12.234337449837817 1.1756660411860116 0 1 0
27 9 2 0.5242 34.65523385961019 8.398062234653342 7.986929907983097 -2 -2 0
25 9 1 -1.0484 33.90916610549329 8.37586898713485 7.38765286571272 -2 -2 0
26 9 2 0.5242 33.15611529997701 8.190446161671957 7.948701588609223 -2 -2 0
4070 1357 2 0.5242 33.66984661808983 12.353806784130423 2.597593997364811 0 -1 0
2585 862 2 0.5242 29.346174155421483 13.040072489389829 6.7581085358631 -7 1 -1
2584 862 1 -1.0484 29.341781432258312 12.607277692553904 5.904345160807347 -7 1 -1
2879 960 2 0.5242 33.6014359165441 15.575350183368059 35.78239461570605 0 -1 -2
4071 1357 2 0.5242 33.753296653252676 13.68267816688781 3.3180519114740346 0 -1 0
4069 1357 1 -1.0484 34.1090866150868 12.794080638785513 3.3252412149300605 0 -1 0
2994 998 2 0.5242 36.69698320215659 15.99586813515575 1.6416581365018712 1 0 6
2992 998 1 -1.0484 37.24593304654678 15.420555060833912 2.1744920190837487 1 0 6
2993 998 2 0.5242 37.66533176396058 14.836366279196392 1.5427709251780977 1 0 6
1298 433 2 0.5242 0.8248390371706125 15.239196879673521 3.687141649213495 0 -2 3
2878 960 1 -1.0484 34.102949174676546 15.576344218799658 36.59770219138773 0 -1 -2
2880 960 2 0.5242 35.00450231256372 15.405659136896148 36.32510217804822 0 -1 -2
389 130 2 0.5242 5.308735960808656 15.254685361650761 4.761530666272299 0 4 1
388 130 1 -1.0484 4.5510901557835615 15.575317200589826 4.272233949129783 0 4 1
564 188 2 0.5242 4.814072045282093 15.732726948314099 1.019827382109088 1 -1 0
562 188 1 -1.0484 4.5751235753533255 14.961156002379923 1.5334663121725787 1 -1 0
563 188 2 0.5242 4.512444205043665 15.281792065761195 2.433192570176023 1 -1 0
390 130 2 0.5242 3.907233520268915 14.87003363219465 4.337553396856292 0 4 1
1274 425 2 0.5242 3.7246867628132874 18.323530684276385 -0.07050353024705602 2 -2 1
1275 425 2 0.5242 2.5893102710444857 19.02630150682414 0.6429081195412929 2 -2 1
525 175 2 0.5242 4.294476809446844 20.89431593954942 1.8593821025434059 0 -2 1
3840 1280 2 0.5242 9.345332938770406 18.327322470079615 37.705996446447024 3 2 -1
3839 1280 2 0.5242 8.301729157999494 19.33194313280987 -0.4763156671862771 3 2 0
3838 1280 1 -1.0484 8.789210512180778 18.565463657193007 -0.17446516513495913 3 2 0
710 237 2 0.5242 3.177741665669452 21.85335656174991 37.368872496694564 5 0 -3
709 237 1 -1.0484 3.552679667827115 21.038694074352286 37.03422443313797 5 0 -3
711 237 2 0.5242 3.966914872053459 20.63423245312229 -0.8257570383716129 5 0 -2
523 175 1 -1.0484 3.4557783984893993 20.53910753232883 1.5650088451986686 0 -2 1
4380 1460 2 0.5242 8.605712384936329 16.240316027219233 3.4060779386441205 -1 5 3
1841 614 2 0.5242 10.292245532551542 22.668861956942266 36.23423549440965 2 -2 3
2307 769 2 0.5242 12.331228297795562 22.75130219732208 3.18695620902559 -7 -1 0
2306 769 2 0.5242 10.930948936569067 23.32672239169133 3.181326631231504 -7 -1 0