LAMMPS data file via write_data, version 23 Jun 2022, timestep = 2000822

4500 atoms
2 atom types
3000 bonds
1 bond types
1500 angles
1 angle types

-0.8173294966368942 37.804329496642126 xlo xhi
-0.8255033446391415 37.80450334464038 ylo yhi
-0.8510466196324806 37.80504661964039 zlo zhi

Masses

1 15.9994
2 1.00794

Pair Coeffs # lj/cut/tip4p/long/gpu

1 0.16275 3.16435
2 0 0

Bond Coeffs # harmonic

1 250 0.9572

Angle Coeffs # harmonic

1 60 104.52

Atoms # full

4206 1402 2 0.5242 5.319706320298811 7.633383672004246 6.351828240029911 3 0 0
3125 1042 2 0.5242 2.8370553520171176 2.8360050140440767 0.4604151134407646 1 -2 0
4441 1481 1 -1.0484 0.7285892094846809 1.5164781742205977 -0.6663989432526353 4 0 -1
4442 1481 2 0.5242 0.5488210071709898 1.692059309951894 0.2572333669966316 4 0 -1
4443 1481 2 0.5242 1.5558790265685518 1.9657768990849287 -0.839504202360322 4 0 -1
1683 561 2 0.5242 1.5190220627217736 -0.4310455675340617 4.6644508567871545 1 0 -3
3126 1042 2 0.5242 3.3908210910267274 1.5296933538596176 -0.06761250271855934 1 -2 0
1760 587 2 0.5242 0.5482041943760312 2.843075218968803 2.9910410640518985 0 -2 -3
4414 1472 1 -1.0484 5.45663387478248 6.190803276574766 1.6505363604614298 -1 4 1
4415 1472 2 0.5242 5.6559925711737025 7.0235712155398025 2.0783164592556864 -1 4 1
2055 685 2 0.5242 36.093631213456824 4.803825012285427 5.030000640511246 7 0 -2
2053 685 1 -1.0484 36.63477583213614 4.014334772348736 5.019538213985329 7 0 -2
2054 685 2 0.5242 36.47949813766893 3.6283557104152946 4.157476319383829 7 0 -2
109 37 1 -1.0484 5.843498220100585 2.500628681842204 2.3611298460736605 -1 -2 3
1681 561 1 -1.0484 2.051811421377332 0.24257859395422887 4.241830539616997 1 0 -3
1682 561 2 0.5242 2.4247998644186173 -0.19244469054400637 3.4750997466293665 1 0 -3
2556 852 2 0.5242 35.68297502333458 0.22716463087357797 4.379113760315296 5 7 -6
2554 852 1 -1.0484 34.93532764110354 0.22056552451464895 4.976793932730161 5 7 -6
2555 852 2 0.5242 35.26697285035176 0.6211006585238563 5.78042630597681 5 7 -6
4476 1492 2 0.5242 2.3108590721758264 36.13883908346868 37.45151768733383 -2 1 -7
3124 1042 1 -1.0484 3.1776784186701703 2.4241332582856403 -0.33367514516395735 1 -2 0
110 37 2 0.5242 6.547767908014664 2.4094750279631816 3.0029533720302783 -1 -2 3
111 37 2 0.5242 6.103602560996232 1.9312912948712788 1.6369455208314303 -1 -2 3
4204 1402 1 -1.0484 4.3802596472729425 7.697431314102518 6.523815515423552 3 0 0
4205 1402 2 0.5242 4.294753079050505 8.446625244622554 7.113424514926662 3 0 0
949 317 1 -1.0484 6.344523634700146 5.6052254564703565 6.616284882945082 -2 5 -2
2653 885 1 -1.0484 8.955486729075208 0.4965393293565157 1.854222596315787 -1 -3 0
2654 885 2 0.5242 8.694369733475822 0.029979413935359633 2.6481884901925437 -1 -3 0
2655 885 2 0.5242 9.02903658469816 1.411226909976111 2.1265818219291974 -1 -3 0
951 317 2 0.5242 5.464876887857097 5.794940240997339 6.289983865639184 -2 5 -2
4479 1493 2 0.5242 8.806879916197552 6.850171772232098 8.01152623632387 3 1 -4
4154 1385 2 0.5242 10.197066690105526 6.3729479637515265 5.953580736191508 2 2 2
3146 1049 2 0.5242 7.973592265530387 5.029271195346693 1.018128086623021 -2 5 2
534 178 2 0.5242 10.32727924524561 0.010327907600611197 0.09165432798778617 -7 4 -1
4477 1493 1 -1.0484 9.599956905856354 6.354582948503142 7.807412609068685 3 1 -4
3147 1049 2 0.5242 7.497173340161217 6.348861552567576 1.5870095692116926 -2 5 2
3145 1049 1 -1.0484 8.28364378427519 5.817132836338064 1.4646526074179884 -2 5 2
311 104 2 0.5242 12.019623957552097 36.02166299969487 37.576534845573605 -2 -1 -3
3176 1059 2 0.5242 8.337201630626565 4.118758775746512 2.542508984074185 -1 1 -5
3175 1059 1 -1.0484 8.656838468022816 3.281007390312822 2.8775419094925545 -1 1 -5
3177 1059 2 0.5242 8.94305328930111 3.4731227829576277 3.7705228302583222 -1 1 -5
950 317 2 0.5242 6.364509893948776 4.65311227246097 6.712842270075993 -2 5 -2
3613 1205 1 -1.0484 9.129923299865736 1.2290505481373066 5.843887424294577 1 2 2
3615 1205 2 0.5242 10.020866148982137 1.2115531987677652 6.193397121182213 1 2 2
4155 1385 2 0.5242 11.38197240904901 5.467987680066861 6.216193767394801 2 2 2
4153 1385 1 -1.0484 10.807709879910337 5.779354885745738 5.516539711221978 2 2 2
2249 750 2 0.5242 14.992407749612081 4.279281032882982 3.2812687856826432 1 2 4
3050 1017 2 0.5242 16.8719061529608 6.129865996643754 5.070054163082331 0 -3 1
1752 584 2 0.5242 16.382838159557707 6.015669703263013 2.292093396060152 3 1 1
2647 883 1 -1.0484 16.610261898795095 4.259725851098929 1.7417712221377482 1 -2 2
2648 883 2 0.5242 16.03057376884183 4.486666887859113 1.0146522191589906 1 -2 2
3428 1143 2 0.5242 10.31101636965289 6.623341407487067 2.453546800622755 0 -1 3
405 135 2 0.5242 14.827983666278074 2.8745467414476873 -0.42895370204785604 2 -1 2
1587 529 2 0.5242 12.892213043587711 0.6522440520823676 2.429820636543293 -1 1 3
1586 529 2 0.5242 11.546429856084202 1.09033712723027 1.8923619246167407 -1 1 3
1585 529 1 -1.0484 12.079547113149001 1.0875487765945677 2.6873587957331564 -1 1 3
403 135 1 -1.0484 14.730140724655234 2.3305980238297455 0.35257577979129073 2 -1 2
2250 750 2 0.5242 15.631998788723198 4.183330502401912 4.650077372739325 1 2 4
2248 750 1 -1.0484 14.960833475181863 3.781636691471345 4.098333758092132 1 2 4
3051 1017 2 0.5242 16.51386841878831 5.534958286986067 6.4153475143349805 0 -3 1
3049 1017 1 -1.0484 16.16553577422682 5.682526570815591 5.536069444940717 0 -3 1
2649 883 2 0.5242 17.032495766780972 3.445794308005664 1.4670424099258619 1 -2 2
3327 1109 2 0.5242 18.938534479204492 0.16046364713400352 2.420456494014871 -1 2 0
3325 1109 1 -1.0484 19.77155095334864 -0.25782219542340057 2.638085911960885 -1 2 0
4490 1497 2 0.5242 18.50224513717544 2.2044081874352015 7.094999354750193 -1 0 3
591 197 2 0.5242 21.397921927637267 6.555403762142718 -0.7783315713921951 0 0 7
589 197 1 -1.0484 21.1190570643053 7.4649664256305925 -0.6726314008348431 0 0 7
1553 518 2 0.5242 19.789845862547914 2.5097448111692513 1.836717036920072 5 -2 0
1554 518 2 0.5242 20.762064075134052 1.5540689292438707 2.495044597218579 5 -2 0
3326 1109 2 0.5242 19.566217488418634 37.43843529153335 2.684910708688971 -1 1 0
1541 514 2 0.5242 24.218843269951122 1.54311882946819 7.72773828203313 6 0 1
1542 514 2 0.5242 23.774260611593743 1.6376934300096408 6.283673895717379 6 0 1
1305 435 2 0.5242 20.05372324549866 35.59027971280342 1.0760573422964652 0 -1 2
659 220 2 0.5242 17.72676924121397 1.610922827849163 -0.1323770002996042 -2 4 2
658 220 1 -1.0484 17.880937006933024 1.212797389075262 0.7243436518409334 -2 4 2
660 220 2 0.5242 17.04438660327446 0.8090006839252581 0.9553706651462195 -2 4 2
3940 1314 1 -1.0484 17.77930105802017 0.7704987382036708 4.588744102530866 0 -4 3
1552 518 1 -1.0484 20.514414738410945 2.4780713734497 2.4614078691678714 5 -2 0
3969 1323 2 0.5242 25.391189872623976 0.6221921724182031 1.5607527438837399 1 3 -5
3967 1323 1 -1.0484 24.495462835235706 0.8048731223458976 1.2769521048676955 1 3 -5
3337 1113 1 -1.0484 30.5072640756692 3.9311744764982848 2.4253110702563014 3 0 -2
3339 1113 2 0.5242 31.41548977140924 3.944865953063034 2.727272029672256 3 0 -2
3338 1113 2 0.5242 30.464479119170683 3.185173503941021 1.8270687709679652 3 0 -2
3968 1323 2 0.5242 24.1542451720121 1.4109467463759229 1.934589650361227 1 3 -5
2573 858 2 0.5242 23.314158988901927 4.417386542896809 4.434760255275942 -4 7 1
2099 700 2 0.5242 23.836375269355784 4.5238975662801275 0.33566299659402477 -1 -1 3
2098 700 1 -1.0484 23.668877315417227 3.921719412674679 1.0606234899730247 -1 -1 3
270 90 2 0.5242 27.950494282257882 3.366232766918726 0.8424120305454939 -4 1 -4
1707 569 2 0.5242 28.765056535930793 2.678167485467247 4.501580763756548 -1 1 -1
2101 701 1 -1.0484 33.056783398986 4.7308677191225375 2.6080572873919143 1 5 3
2103 701 2 0.5242 33.68001169346859 5.265349980511535 3.100152496162332 1 5 3
2102 701 2 0.5242 33.28153897870013 4.883976853998118 1.6902957452218477 1 5 3
3845 1282 2 0.5242 29.807084900797744 7.3412965029998904 2.8739054690736228 -2 3 -1
3795 1265 2 0.5242 32.52956487842741 1.9483813179183098 36.36178248891436 1 6 2
3793 1265 1 -1.0484 32.717783405287136 1.761361266519796 37.28147834278761 1 6 2
2952 984 2 0.5242 34.09645642486762 2.2785079603793794 3.990177395216988 1 -4 3
2951 984 2 0.5242 34.25342021310864 3.3643951660240186 2.9470418001881833 1 -4 3
2950 984 1 -1.0484 34.620558404969906 2.5264122617108824 3.2285327602286893 1 -4 3
1395 465 2 0.5242 29.428006671701333 37.55919266642897 0.6190422308197774 3 -4 0
1393 465 1 -1.0484 28.622329227300984 37.04252608184687 0.6055180149746979 3 -4 0
1394 465 2 0.5242 28.73974356466393 36.43391130882131 -0.12389538400096678 3 -4 0
79 27 1 -1.0484 30.62457138533487 2.4181882211397125 0.3291027073946753 -2 0 -1
80 27 2 0.5242 30.389660811050607 1.4920409945933755 0.38663709801571566 -2 0 -1
3332 1111 2 0.5242 33.67133658665997 3.644005211735746 -0.006079473779934896 -4 6 -3
3794 1265 2 0.5242 33.61756852099751 1.4348215222101168 37.280708416997356 1 6 2
3423 1141 2 0.5242 0.897601349892506 3.330268325690323 35.888709899931555 -1 2 1
2125 709 1 -1.0484 35.56737119200203 6.166467180428192 3.879036177092564 -2 -2 -4
2126 709 2 0.5242 35.20244733786304 6.781230344533346 4.5155416663386925 -2 -2 -4
1759 587 1 -1.0484 0.6443963688121985 2.0502881974654756 2.4633307169578873 0 -2 -3
22 8 1 -1.0484 31.076926194350143 2.454727784955551 7.209443627250664 -1 2 4
1761 587 2 0.5242 1.527112653730589 1.736679257769692 2.660063248473214 0 -2 -3
23 8 2 0.5242 31.54203376666645 2.029056599031227 7.929666379834114 -1 2 4
869 290 2 0.5242 -0.29195508055757846 4.2188768890342025 4.6030645754624135 1 4 3
3236 1079 2 0.5242 1.3741582337741018 5.7484723042955 2.756206822233251 2 4 0
547 183 1 -1.0484 5.050170990551759 11.04584008753454 5.9065300499715 2 -4 0
4416 1472 2 0.5242 4.769848774992009 5.801358151187385 2.191739194579311 -1 4 1
413 138 2 0.5242 -0.8093565779774181 9.639321992089577 -0.6084850159859314 3 1 -2
548 183 2 0.5242 5.4285830832280535 11.896442040896407 5.6839917452316815 2 -4 0
3237 1079 2 0.5242 2.0144433504553216 6.1215792714840305 4.076337870220424 2 4 0
3235 1079 1 -1.0484 1.6274243509296196 6.502824260365457 3.2882323253558345 2 4 0
3357 1119 2 0.5242 3.683651262939219 12.052216195274337 0.037859958434937835 3 -1 4
1013 338 2 0.5242 37.74499816221866 9.282028951186282 4.851319326858567 -4 -3 1
549 183 2 0.5242 4.600128963253106 10.767321791986642 5.108950974186678 2 -4 0
868 290 1 -1.0484 0.6577411142447274 4.178575294495388 4.4903939074346315 1 4 3
2984 995 2 0.5242 3.800798071946338 4.007248738046625 1.2298933336870332 1 -2 2
2985 995 2 0.5242 3.3348219837921373 3.5149873119074675 2.583578973054218 1 -2 2
632 211 2 0.5242 5.4518809890851285 5.186197644913703 37.43979820237725 -2 1 0
631 211 1 -1.0484 6.3696616117365465 4.990717446248891 37.25083270335416 -2 1 0
633 211 2 0.5242 6.35055651795267 4.544048182476772 36.40444956441753 -2 1 0
4494 1498 2 0.5242 2.052631489890977 9.025140218585339 1.498826018313863 1 3 -1
4493 1498 2 0.5242 3.504161637641433 8.654232520488343 1.2810933369957147 1 3 -1
4492 1498 1 -1.0484 2.901849024843709 9.397936935694586 1.2619843507892115 1 3 -1
2157 719 2 0.5242 9.121994464201798 10.36206101918896 5.161747546272721 1 4 2
2155 719 1 -1.0484 8.609323970181267 10.731230312235327 4.442633440343436 1 4 2
326 109 2 0.5242 8.16828180096134 2.597135967390788 0.23078047555546077 -1 1 0
1887 629 2 0.5242 7.341575969729076 8.63610444937682 1.8611745772125659 8 0 0
1885 629 1 -1.0484 6.475756229561757 8.49284846945556 1.4789754692744812 8 0 0
1886 629 2 0.5242 6.313765422826926 9.275130696073633 0.9516849546317656 8 0 0
2368 790 1 -1.0484 12.067293364825419 8.844683457241413 2.866811341895531 3 -7 2
2156 719 2 0.5242 7.837200146199946 11.106285298525682 4.866190358252609 1 4 2
327 109 2 0.5242 7.7234841158060625 3.849094626000932 -0.49494342485872506 -1 1 0
325 109 1 -1.0484 8.471876526354938 3.262122477352639 -0.3871719896547258 -1 1 0
1751 584 2 0.5242 17.11731416060517 7.311390199321522 2.0208490612839163 3 1 1
1750 584 1 -1.0484 16.56828293981941 6.874486933874434 2.6719420415809267 3 1 1
2943 981 2 0.5242 10.742564805050739 9.559045210631341 34.828367950068085 4 -1 -2
3427 1143 1 -1.0484 11.150285259183443 6.208628401515188 2.653253224206476 0 -1 3
2942 981 2 0.5242 12.107988686009405 9.458606185811753 35.47447121618397 4 -1 -2
2941 981 1 -1.0484 11.651510266594487 9.84074935005065 34.72491404741187 4 -1 -2
3429 1143 2 0.5242 11.151736782315801 6.116448156805821 3.6060087260395903 0 -1 3
2327 776 2 0.5242 15.748796425075575 8.476706661294847 3.603991994793299 -1 1 1
2326 776 1 -1.0484 15.709478948250673 9.428890516211688 3.693669937487993 -1 1 1
3120 1040 2 0.5242 11.357685453389525 6.183807169438759 0.07002390088514987 1 -4 3
3118 1040 1 -1.0484 11.985670478658324 6.729667813277517 -0.4031702824872362 1 -4 3
1755 585 2 0.5242 14.48092702309917 11.86436341771153 36.654323776247296 -1 -2 1
590 197 2 0.5242 20.174401102881028 7.445714099021938 -0.825917908685966 0 0 7
1868 623 2 0.5242 18.623999554800406 5.488752288195805 2.2025429729713704 -4 2 2
1867 623 1 -1.0484 19.273182231876735 5.6116868801672 2.8951402066159093 -4 2 2
579 193 2 0.5242 17.46152959621205 8.944487381989006 0.9942001413452437 1 -2 5
577 193 1 -1.0484 18.127848099311862 8.257275071304539 0.9949823637376625 1 -2 5
1869 623 2 0.5242 19.410266035063533 4.734927682562302 3.253948633874069 -4 2 2
4147 1383 1 -1.0484 21.947649841224543 5.587847339606185 2.215924043278263 2 -1 -1
4148 1383 2 0.5242 21.065315293792576 5.909692724706968 2.031144720010592 2 -1 -1
4149 1383 2 0.5242 22.380903483289796 6.31679010065185 2.6599685697306477 2 -1 -1
4458 1486 2 0.5242 18.18992922733804 6.526137775087069 36.7320358336662 0 0 -3
4094 1365 2 0.5242 18.93133434899218 6.574833893001099 4.375427974241848 0 -4 -1
3033 1011 2 0.5242 23.60017821261826 9.281761964641461 0.16841185215667287 -1 0 0
3031 1011 1 -1.0484 22.816161370342698 9.531192918740778 0.6576397463576384 -1 0 0
3032 1011 2 0.5242 22.110228793270693 9.027133771719962 0.2528843056803438 -1 0 0
578 193 2 0.5242 18.833090375434306 8.607419468685686 1.539292882077131 1 -2 5
2697 899 2 0.5242 16.436057530871285 10.232518128245971 2.2754262276586403 2 0 4
2695 899 1 -1.0484 16.569142085530906 10.558742358686844 1.3854215695224514 2 0 4
2597 866 2 0.5242 17.024102317759105 9.531121252946217 5.005914281251412 -2 -2 -1
2596 866 1 -1.0484 17.762575880390276 9.23557150096639 5.538407507650246 -2 -2 -1
2767 923 1 -1.0484 19.320001656247744 10.691476522944228 2.6888952912364035 2 1 3
2769 923 2 0.5242 19.750166273603057 10.762400163931849 3.5410514253404406 2 1 3
2768 923 2 0.5242 18.869246802366018 11.528486542862481 2.577198452808954 2 1 3
2064 688 2 0.5242 26.007180035352878 7.6511468247057675 0.7050147801109099 1 0 0
2492 831 2 0.5242 26.21015447881251 8.341863774258526 3.2489341069988393 2 -2 -5
2491 831 1 -1.0484 25.311827187498032 8.030163574348814 3.1389632221295316 2 -2 -5
2493 831 2 0.5242 25.389257162787786 7.076257786055157 3.1212917714209247 2 -2 -5
3822 1274 2 0.5242 19.745249064725808 9.477566235764243 5.371305729890378 1 -4 -1
3820 1274 1 -1.0484 20.645918271262552 9.15444371448134 5.396379446179555 1 -4 -1
3821 1274 2 0.5242 20.84066322787527 8.916011083204001 4.490031822756893 1 -4 -1
1928 643 2 0.5242 22.98531402250983 12.889463450758994 1.2873531815577008 2 0 1
1927 643 1 -1.0484 23.273440762874504 12.178434964844055 1.859772107490846 2 0 1
2676 892 2 0.5242 23.721245273628696 8.161024708269785 2.901789819484893 -2 -2 0
2674 892 1 -1.0484 22.769857229749423 8.143740240477264 3.0057313879547913 -2 -2 0
2675 892 2 0.5242 22.447659450833513 8.786192503686944 2.3735244057381952 -2 -2 0
1032 344 2 0.5242 24.73032062715318 4.89515998312725 2.3131585331716584 -1 -1 2
1030 344 1 -1.0484 25.402908883956723 5.423636828425351 2.7427857724225007 -1 -1 2
1031 344 2 0.5242 26.215690152059715 4.937863815803607 2.602595540073685 -1 -1 2
2063 688 2 0.5242 25.843491954254425 7.041313234802603 -0.6709318831762576 1 0 0
2062 688 1 -1.0484 25.496271441930656 7.727371790235237 -0.10084123169223558 1 0 0
1323 441 2 0.5242 28.886380223495653 4.749421787423079 3.597966640723018 5 -1 4
269 90 2 0.5242 28.852429783073532 4.064809523853582 1.837611994275214 -4 1 -4
268 90 1 -1.0484 27.937604232204947 3.9938477321767634 1.5650290742264845 -4 1 -4
1929 643 2 0.5242 23.07791217275743 11.380565796873137 1.3684311509840383 2 0 1
3846 1282 2 0.5242 30.75758772548396 8.287675117009284 3.5759252323755453 -2 3 -1
3844 1282 1 -1.0484 29.945101702997963 7.798007677414688 3.703729572369366 -2 3 -1
4190 1397 2 0.5242 28.673841544275238 9.09551029709071 2.6365051670193207 -2 3 5
4189 1397 1 -1.0484 27.87853796985576 8.878325445514456 2.1501253570340277 -2 3 5
4391 1464 2 0.5242 32.17045205107068 12.5501859444932 1.4312610784767466 -5 2 1
4191 1397 2 0.5242 28.175151540942263 8.753230738134919 1.2486740109809418 -2 3 5
3023 1008 2 0.5242 29.815533852591063 12.327532101877852 2.2180549821822435 -5 2 -5
3024 1008 2 0.5242 30.596008658827518 11.650780358180356 3.3247556917304717 -5 2 -5
3022 1008 1 -1.0484 30.443024733719746 11.62312678614169 2.3802593693945298 -5 2 -5
2601 867 2 0.5242 35.419562940114616 10.754668667892162 4.918882298891025 4 0 5
1116 372 2 0.5242 34.25228622410635 9.082462439351422 -0.579705131378573 2 -3 3
2127 709 2 0.5242 35.861775389822036 6.718012408496511 3.1542148370115646 -2 -2 -4
412 138 1 -1.0484 -0.402527646666687 9.039349918479614 37.42249588438587 3 1 -3
414 138 2 0.5242 -0.3633398685570944 9.535160389038783 36.6046461555063 3 1 -3
977 326 2 0.5242 -0.3891860619337428 7.2241148541088 1.241158690306424 -3 -2 1
1012 338 1 -1.0484 37.312535512177426 8.489710608565499 5.169832487201467 -4 -3 1
1014 338 2 0.5242 37.340959200788404 7.885902164816304 4.427640265687567 -4 -3 1
2600 867 2 0.5242 36.45161260507007 11.38071810702512 5.832586812545227 4 0 5
2983 995 1 -1.0484 3.031981321140259 3.9721924996143994 1.799045306049874 1 -2 2
978 326 2 0.5242 -0.12787948505838787 7.0653046016841206 2.7238650588084914 -3 -2 1
976 326 1 -1.0484 37.792754893920204 7.045416207843777 2.072396708321618 -4 -2 1
4355 1452 2 0.5242 37.3692116384257 11.614025988995376 37.53654813980582 0 -3 1
4354 1452 1 -1.0484 36.76481934538511 11.131008039769586 -0.5559447657707932 0 -3 2
4356 1452 2 0.5242 35.898374898550486 11.459457487480615 -0.7960211688408738 0 -3 2
4382 1461 2 0.5242 0.6305979725803375 12.60835324276124 37.44850454154616 -4 1 0
4381 1461 1 -1.0484 -0.21883679795067845 12.768831134102323 37.03746978632836 -4 1 0
4182 1394 2 0.5242 1.747199671352747 10.376006886889177 4.231537138909312 0 0 0
4180 1394 1 -1.0484 1.0137990082458042 9.93489132074286 4.660236706830574 0 0 0
4181 1394 2 0.5242 1.1868732945632687 9.002176802037201 4.5324452820482115 0 0 0
3677 1226 2 0.5242 5.6812602556725365 14.5080757629568 5.002731303402992 -5 6 -3
474 158 2 0.5242 2.5912861109938694 15.032362683644681 1.2952218948448482 1 1 2
4383 1461 2 0.5242 -0.1550256279887704 13.66030791812103 36.69477567063916 -4 1 0
472 158 1 -1.0484 2.0967890601087174 15.471390750488055 1.9872982140804538 1 1 2
473 158 2 0.5242 1.48321340888263 14.807498942576327 2.30196495392945 1 1 2
479 160 2 0.5242 3.2419721045929837 10.55287640725075 2.813516396278546 4 0 3
3355 1119 1 -1.0484 3.065790326535638 12.497830269465938 0.6174441308056215 3 -1 4
566 189 2 0.5242 7.696652919669997 16.913442270011522 4.526115348752691 -6 -3 -2
565 189 1 -1.0484 7.262667501271009 16.1115695416641 4.23474142003936 -6 -3 -2
567 189 2 0.5242 6.552565438363021 16.41494798692387 3.6690927422047377 -6 -3 -2
1276 426 1 -1.0484 9.815391139305264 15.760095480215167 5.969611061915379 0 0 1
1277 426 2 0.5242 10.24280745336424 15.327781238544564 5.230245257982784 0 0 1
3112 1038 1 -1.0484 6.433016162344367 19.45642030607229 4.180189015569092 -5 1 8
478 160 1 -1.0484 3.298098875296069 11.224747671289565 3.4929875011318936 4 0 3
480 160 2 0.5242 3.715822491440316 11.969388568030512 3.0602533881326917 4 0 3
1278 426 2 0.5242 10.048823184301256 15.224959646130472 6.72814977610978 0 0 1
3678 1226 2 0.5242 6.326254295427853 13.560538776998262 4.013753942715858 -5 6 -3
500 167 2 0.5242 11.262901627711683 10.659533443167984 0.43553466892943904 0 0 0
499 167 1 -1.0484 12.178252833087987 10.430864694786218 0.2740267333394537 0 0 0
2873 958 2 0.5242 9.548180292744043 12.522024376551265 1.4152348929493064 3 -1 -2
2872 958 1 -1.0484 9.42320984583126 11.575531257535268 1.4843455020561271 3 -1 -2
2874 958 2 0.5242 9.832210893886131 11.339622641602695 2.3169962063885223 3 -1 -2
2328 776 2 0.5242 14.790973916623354 9.647101453655267 3.5356367609782353 -1 1 1
1218 406 2 0.5242 12.835253057527499 8.305672595422175 37.314936038079935 -2 1 2
1216 406 1 -1.0484 13.092510785145851 9.056456905425426 36.77978827169217 -2 1 2
2899 967 1 -1.0484 13.72663814692089 12.705694627201712 1.2460928353314489 -3 5 -2
2900 967 2 0.5242 13.059733120920487 13.223689403370695 1.6968265535733225 -3 5 -2
1134 378 2 0.5242 17.08849052250821 14.441878762173726 5.71659278999718 -1 1 2
1133 378 2 0.5242 16.706335296369975 13.028105089501762 5.333027309666252 -1 1 2
1132 378 1 -1.0484 17.042285204977293 13.84683185886115 4.9682437384859215 -1 1 2
2901 967 2 0.5242 13.340072214908751 12.50652555869986 0.3933672658146681 -3 5 -2
2867 956 2 0.5242 17.48381920559144 13.104203531247624 1.8750812069869522 -1 0 6
2868 956 2 0.5242 17.571610392416826 13.549913870294468 3.3192262226474316 -1 0 6
2866 956 1 -1.0484 18.085386938438 13.14868767046372 2.6183033396070994 -1 0 6
128 43 2 0.5242 12.724583482206867 15.911674229299617 3.839289179184134 2 0 4
127 43 1 -1.0484 11.828074074766311 15.579191497130207 3.8836650393257193 2 0 4
129 43 2 0.5242 11.346031021542853 16.102609386119646 3.243422593496981 2 0 4
501 167 2 0.5242 12.303412112660803 9.601508860091773 0.7352722117833934 0 0 0
915 305 2 0.5242 14.37178145239282 15.492062830908928 9.94046741316682 -2 -1 4
1217 406 2 0.5242 12.818076808979747 9.819257942894591 37.28877010237733 -2 1 2
1454 485 2 0.5242 13.12199504488364 14.295772932388251 -0.24359128827266208 5 4 -1
2422 808 1 -1.0484 20.269581209822377 12.380551909730768 4.978164031813504 -1 -1 -1
2841 947 2 0.5242 19.99269163222663 11.749680330684805 0.5825045418816017 -3 -1 -4
2839 947 1 -1.0484 20.50153492815751 12.42842295797057 0.1390761001631432 -3 -1 -4
2046 682 2 0.5242 21.923189200860953 16.000671325901394 0.792236266423221 1 -3 0
3522 1174 2 0.5242 19.917400117014044 15.95170327814131 0.8022309776373848 2 -4 4
2044 682 1 -1.0484 21.499794501518654 15.224410169227088 0.42563393696773577 1 -3 0
3520 1174 1 -1.0484 18.977101659762322 15.77374379836645 0.8225181730414164 2 -4 4
3521 1174 2 0.5242 18.896888527407196 14.964240709901961 1.3270105707405944 2 -4 4
2423 808 2 0.5242 19.409616581734124 12.350399101238379 4.5588868103407325 -1 -1 -1
3624 1208 2 0.5242 16.115793754315842 14.355159636967006 7.357296260404821 2 -5 -2
2045 682 2 0.5242 21.614303324482655 14.549876352164734 1.095061705792459 1 -3 0
2840 947 2 0.5242 19.86264426063755 12.892248531881092 -0.4021505894053336 -3 -1 -4
2903 968 2 0.5242 21.526657615832164 13.296248581394197 4.251609919094478 3 -1 2
2904 968 2 0.5242 22.278336149756086 13.210332406289599 2.9403060804218097 3 -1 2
2902 968 1 -1.0484 22.020051228470876 13.826485833426053 3.6257881287557625 3 -1 2
2696 899 2 0.5242 15.731028671007131 10.955086864172236 1.1472646255488181 2 0 4
3622 1208 1 -1.0484 16.613814092804258 15.100975754264354 7.691925476279405 2 -5 -2
3623 1208 2 0.5242 17.314072487226046 14.707717159111773 8.212721766358419 2 -5 -2
222 74 2 0.5242 28.38788479604796 13.322105129086841 3.535591435905202 -1 -2 1
221 74 2 0.5242 27.094758597196552 12.592018197536621 3.830070596182181 -1 -2 1
220 74 1 -1.0484 28.04564569766572 12.48312968169038 3.844194617550686 -1 -2 1
3908 1303 2 0.5242 23.85855619168326 15.43440459174884 36.48471587364679 -2 -5 -2
3907 1303 1 -1.0484 23.52387082532183 16.298451047681485 36.2446071723687 -2 -5 -2
3909 1303 2 0.5242 23.578522682277683 16.809825636162785 37.051918158977585 -2 -5 -2
1456 486 1 -1.0484 22.772157380253894 17.337263071889467 1.2444245916889805 2 0 1
2018 673 2 0.5242 26.356868110377462 15.560115102981467 -0.08446502769708542 -2 1 9
2019 673 2 0.5242 27.004494860963327 15.893917220708651 37.244572998061955 -2 1 8
2017 673 1 -1.0484 27.169847925161623 15.88821838466496 -0.4687224973069003 -2 1 9
2771 924 2 0.5242 30.405774155153786 15.697785545477771 3.627203735954577 2 2 -1
3996 1332 2 0.5242 29.662934320148608 15.069390723589537 1.6425555030630759 0 3 2
2770 924 1 -1.0484 29.70560245091466 15.101636361561223 3.3614830178292188 2 2 -1
2772 924 2 0.5242 28.92095439559292 15.448690437546059 3.7858915832910354 2 2 -1
3994 1332 1 -1.0484 29.80754663611323 15.203402633052118 0.7058744025317403 0 3 2
3995 1332 2 0.5242 29.01910579150199 15.654068367342262 0.40337899932136034 0 3 2
1457 486 2 0.5242 22.11634736466619 17.898152971527143 1.658619736293148 2 0 1
4302 1434 2 0.5242 30.091638278359877 17.047803029586746 37.099030516237875 0 0 1
4301 1434 2 0.5242 30.33739521169592 17.460955560013165 35.66347172650383 0 0 1
4300 1434 1 -1.0484 29.703994950672246 17.013421624250142 36.22450649671494 0 0 1
4392 1464 2 0.5242 33.1319072069805 12.851393598593383 0.3013060854370766 -5 2 1
4390 1464 1 -1.0484 32.94414825967482 12.207258609790587 0.9840057779911422 -5 2 1
3653 1218 2 0.5242 30.85288758125213 10.819018121807456 1.0234242082723002 0 -1 -3
3836 1279 2 0.5242 28.72380454957956 11.89288669306466 5.303053507150033 3 2 -1
3837 1279 2 0.5242 28.71351960014852 10.867531150210775 6.416812903884282 3 2 -1
3835 1279 1 -1.0484 29.103150546842404 11.703669396853268 6.161269790167279 3 2 -1
2174 725 2 0.5242 31.599669166505976 14.969267325521125 0.19109016670300205 3 0 -5
2173 725 1 -1.0484 32.53542224524822 14.864316646624388 0.36312093909794285 3 0 -5
2175 725 2 0.5242 32.733913986358594 15.528028447993805 1.0236735363201312 3 0 -5
3225 1075 2 0.5242 36.43519413756721 16.595916700637705 3.7098060346016215 -2 -2 -1
3223 1075 1 -1.0484 35.6468709068212 17.12779535170665 3.6007497100386985 -2 -2 -1
3224 1075 2 0.5242 34.92368772458422 16.510697293091862 3.712275352658734 -2 -2 -1
2599 867 1 -1.0484 36.14771342851538 11.375959464108588 4.924916772517201 4 0 5
282 94 2 0.5242 30.84644476731642 14.532063710048288 5.459987294654302 -1 -5 2
280 94 1 -1.0484 31.582677559765074 14.623255408173456 6.064873286082224 -1 -5 2
2465 822 2 0.5242 37.56057959962957 15.176934310477517 35.08202092114476 1 4 6
2466 822 2 0.5242 36.10611986423253 15.339921816214265 35.46919277615905 1 4 6
2464 822 1 -1.0484 36.995700094702336 15.44836025312285 35.805540787504654 1 4 6
2335 779 1 -1.0484 33.7232917629042 15.875502611081387 36.511929541319304 2 2 -2
2337 779 2 0.5242 33.304443746354515 16.721278354820114 36.35233170378939 2 2 -2
3843 1281 2 0.5242 35.97510321020566 17.181161181526065 1.3495471297195305 4 -1 2
3842 1281 2 0.5242 36.175867674394055 16.179109720454257 0.2326285651851132 4 -1 2
3841 1281 1 -1.0484 35.49623624117714 16.65930313929904 0.705658271808288 4 -1 2
2847 949 2 0.5242 35.4634600564274 9.939073304179397 1.831089108369583 -3 -1 3
1996 666 1 -1.0484 -0.3493911590500125 18.273939632166666 1.3803922786578804 1 4 0
3410 1137 2 0.5242 3.110795807360583 16.724529829721547 4.9136371326329185 2 -4 -6
203 68 2 0.5242 9.304986828051174 20.439071734821287 0.8757737790452187 -1 2 -1
202 68 1 -1.0484 8.40253043804385 20.247671248996333 1.131077665808341 -1 2 -1
204 68 2 0.5242 8.175315670165341 19.45989006966708 0.6370979147489373 -1 2 -1
1411 471 1 -1.0484 6.323001527710138 15.619768571505347 6.925341971106635 0 1 3
1412 471 2 0.5242 7.050015334795482 15.744665461847035 6.315346473811724 0 1 3
3725 1242 2 0.5242 2.5075713229149303 18.673673348099932 1.2888228468990337 -4 -1 1
3724 1242 1 -1.0484 3.345075005466912 18.464870996001594 1.70262370708249 -4 -1 1
3726 1242 2 0.5242 3.127013755718152 18.312205188041254 2.6220718649851373 -4 -1 1
1413 471 2 0.5242 5.774271483959693 16.395046277041146 6.8066739376509515 0 1 3
1804 602 1 -1.0484 37.691328069259065 23.044706283938172 1.3556728694960967 4 1 2
1806 602 2 0.5242 37.056898517171014 23.722995680222002 1.5873294714285389 4 1 2
1805 602 2 0.5242 37.299189823055634 22.231032564821824 1.6725409896872105 4 1 2
1998 666 2 0.5242 0.17110220469878568 18.738774331178423 2.035570360807051 1 4 0
3409 1137 1 -1.0484 2.8290492122077118 17.3213447087303 4.220331615031992 2 -4 -6
3411 1137 2 0.5242 2.5051739347013515 16.74714634538368 3.526326555576129 2 -4 -6
4052 1351 2 0.5242 -0.020703055040826035 20.478834526270568 2.736976422044308 1 -1 0
4051 1351 1 -1.0484 0.7716904926197794 20.06861235690304 3.0834914398957682 1 -1 0
4053 1351 2 0.5242 1.479454185461329 20.66057020652135 2.828738813930786 1 -1 0
2409 803 2 0.5242 3.0255568268065867 23.9549756927319 1.606217219253423 1 3 -2
317 106 2 0.5242 4.4908078019400355 19.652391176273582 1.2662356269001562 -3 3 0
316 106 1 -1.0484 4.979919872847497 20.189577003821142 0.6429829586204372 -3 3 0
3114 1038 2 0.5242 6.416019975130836 18.79935399841624 3.4843321629496957 -5 1 8
2507 836 2 0.5242 7.688846526822889 17.353844893560495 35.6716842636031 -2 -4 3
2263 755 1 -1.0484 9.25313728852776 18.56939987999053 5.764199940954888 -2 1 5
2264 755 2 0.5242 9.952550223877434 17.918603651970383 5.704799666106442 -2 1 5
2265 755 2 0.5242 9.270877489110944 18.858163742787298 6.6766377924776545 -2 1 5
4404 1468 2 0.5242 4.478217232858425 22.73939943897369 1.578325780991518 5 1 -1
4402 1468 1 -1.0484 5.1819230482861816 23.28772808646781 1.9252779551422012 5 1 -1
2117 706 2 0.5242 8.529778281764159 23.55509215931566 0.324000368770329 0 3 1
4403 1468 2 0.5242 5.147764316815381 23.151404257811347 2.8721106553902676 5 1 -1
2116 706 1 -1.0484 9.318063261537201 23.270036247645667 -0.1381594735758901 0 3 1
318 106 2 0.5242 5.847246789506177 20.284299719316756 1.036700377029824 -3 3 0