LAMMPS data file via write_data, version 23 Jun 2022, timestep = 2000822

4500 atoms
2 atom types
3000 bonds
1 bond types
1500 angles
1 angle types

0.0630991074709577 36.92390089252535 xlo xhi
0.055115555554230866 36.92388444443945 ylo yhi
0.03016695580716444 36.923833044196016 zlo zhi

Masses

1 15.9994
2 1.00794

Pair Coeffs # lj/cut/tip4p/long/gpu

1 0.16275 3.16435
2 0 0

Bond Coeffs # harmonic

1 250 0.9572

Angle Coeffs # harmonic

1 60 104.52

Atoms # full

740 247 2 0.5242 4.558863120685163 4.046866877754136 2.9528422534465304 -1 2 -1
739 247 1 -1.0484 4.776538630214266 4.470460730664131 2.122515652026983 -1 2 -1
4090 1364 1 -1.0484 3.6477797448631377 3.342245695140729 4.364509107379147 -1 -1 -2
741 247 2 0.5242 4.206082151755176 4.047639137232313 1.4805982645183948 -1 2 -1
4092 1364 2 0.5242 2.7377972426379604 3.6297002679835777 4.439063029918131 -1 -1 -2
4091 1364 2 0.5242 4.043706398289015 3.5789201720743895 5.203248771609407 -1 -1 -2
3444 1148 2 0.5242 1.660693895871658 1.9606041961569942 8.111914034793184 -1 -2 0
953 318 2 0.5242 7.320660532513416 5.345250970352425 5.952508087739304 4 0 4
449 150 2 0.5242 5.642841318030119 6.540049183975573 4.435346745969584 0 -1 2
3765 1255 2 0.5242 3.8496619088702384 1.5097390283325978 4.187299228466162 -1 0 3
3764 1255 2 0.5242 5.196228856237133 1.1137103761167908 3.6199580102631463 -1 0 3
3369 1123 2 0.5242 36.00449377227318 0.4102211744775877 2.915252418782563 1 2 0
3367 1123 1 -1.0484 36.823119842763774 0.6962951218826835 2.509950425745389 1 2 0
3763 1255 1 -1.0484 4.333672564731058 0.7610533938015903 3.838787315048432 -1 0 3
3432 1144 2 0.5242 4.970309491919717 5.736584599996147 0.6085446079825849 4 1 3
2651 884 2 0.5242 0.4092500085643774 2.3401998686144765 2.658947453821447 0 -3 0
2103 701 2 0.5242 34.01263980718406 1.7907609327786056 4.5644972024417685 1 1 -1
3443 1148 2 0.5242 2.5918346346458314 0.8463875149156457 7.683597218529629 -1 -2 0
3442 1148 1 -1.0484 2.3519215092943417 1.751234612672075 7.483721852955808 -1 -2 0
4329 1443 2 0.5242 2.6459327907063033 36.64202853250326 3.9527793953907917 3 1 0
954 318 2 0.5242 7.15223023422314 4.3656329627746855 4.810607426862555 4 0 4
3276 1092 2 0.5242 7.983041330364803 2.9536533227774324 3.6473013238696312 -2 2 0
3274 1092 1 -1.0484 7.705003930844815 2.689940304861495 4.52446070468783 -2 2 0
2413 805 1 -1.0484 11.701226670597334 2.820521506078016 2.1804611514963876 0 -4 1
2414 805 2 0.5242 11.139666828515088 3.333106905202872 1.598942958722121 0 -4 1
3275 1092 2 0.5242 7.4534287548420375 1.7711813579814666 4.430389823177859 -2 2 0
2240 747 2 0.5242 10.153138117581452 2.729190682969249 5.540472129597544 1 1 2
2187 729 2 0.5242 9.504435288835861 5.613301241985288 3.6635836784339504 -1 -3 -3
2185 729 1 -1.0484 10.278130844571306 6.063464701770259 4.002706913360859 -1 -3 -3
952 318 1 -1.0484 7.2031683277225405 5.301819523435607 5.003526451407154 4 0 4
3072 1024 2 0.5242 9.707497185784536 5.851265705139802 5.962363856709852 2 -1 3
2031 677 2 0.5242 7.873590936845807 5.818109045719951 1.1919255069164791 1 2 2
2030 677 2 0.5242 7.2686656971908 4.792065290900843 2.1264076261594043 1 2 2
2029 677 1 -1.0484 7.967851013762658 4.911308792185088 1.4836188118401077 1 2 2
3071 1024 2 0.5242 10.473699424832779 5.900617590912521 7.267146121327262 2 -1 3
1958 653 2 0.5242 11.87098870659211 6.2346181105167515 5.166293272451291 -1 0 0
2239 747 1 -1.0484 10.80632109344584 2.78592408054367 6.237888904440742 1 1 2
2415 805 2 0.5242 11.106514741434513 2.2017684479917636 2.6043938730822367 0 -4 1
3430 1144 1 -1.0484 5.049098932251841 6.207723224034824 36.67270651118628 4 1 2
3830 1277 2 0.5242 15.207643337810124 4.33791121181798 0.9774141099033706 0 -1 2
3829 1277 1 -1.0484 14.615048764484408 3.6089814151636515 0.7937034560107145 0 -1 2
3831 1277 2 0.5242 13.861394044288396 3.762947185812932 1.3634013220115504 0 -1 2
2854 952 1 -1.0484 12.836749151142318 3.547543616299143 4.510381751659478 1 2 0
2856 952 2 0.5242 12.595699870110856 3.571306781700586 3.5843210252645727 1 2 0
1341 447 2 0.5242 16.672418900056552 3.2587029302307333 3.8148364815013864 -3 1 1
2241 747 2 0.5242 11.64725253725626 2.7261851872191722 5.784542353637735 1 1 2
2855 952 2 0.5242 12.680574108509486 4.439046249408511 4.821973342371675 1 2 0
1025 342 2 0.5242 16.648407369630853 1.9093766313459395 6.832199140643708 2 0 -1
1024 342 1 -1.0484 17.304031940988015 2.60172116949879 6.916305629285112 2 0 -1
1340 447 2 0.5242 17.411147723654288 2.7533026496426602 2.593850221412423 -3 1 1
1026 342 2 0.5242 16.88540766290652 3.2629969111762263 7.467418401956738 2 0 -1
131 44 2 0.5242 14.167683963499758 2.2708292268787362 4.171113982128311 1 3 3
1339 447 1 -1.0484 17.22170755227065 3.551208158720766 3.0875265555503937 -3 1 1
1957 653 1 -1.0484 12.600520049282814 6.056999763547214 5.760005088709699 -1 0 0
130 44 1 -1.0484 14.706546075710724 1.4797142770364995 4.175845560076036 1 3 3
132 44 2 0.5242 14.60492638776308 1.1148615486554276 3.296747879322793 1 3 3
4133 1378 2 0.5242 15.303365593248703 0.9115144053022748 5.496328210527069 0 2 0
812 271 2 0.5242 18.262216065814457 5.212717799984992 3.430998459357175 1 -5 0
571 191 1 -1.0484 20.046113118544937 1.4608228388941027 0.9896551571699181 1 -1 -1
573 191 2 0.5242 19.30311487420231 2.052573463575327 0.8711564793560435 1 -1 -1
3474 1158 2 0.5242 17.965858911728116 4.96950885482192 35.40085059759656 1 -1 -1
3996 1332 2 0.5242 21.425087118175952 2.719853911734972 1.487708296274238 -2 -2 1
2522 841 2 0.5242 20.957399327803767 1.3651781857767078 4.340459716356531 -1 0 0
3614 1205 2 0.5242 24.625840356805416 34.725392070726045 0.8929913395784017 -4 -3 0
3995 1332 2 0.5242 21.84217718523915 3.8659789423294266 2.3845871786889674 -2 -2 1
3994 1332 1 -1.0484 21.634871835367374 3.653702645549611 1.4745210368349821 -2 -2 1
3613 1205 1 -1.0484 24.101086155006243 35.512284196074646 0.7457120469523074 -4 -3 0
3615 1205 2 0.5242 24.08330862792402 35.61425699506094 36.687778199450435 -4 -3 -1
2521 841 1 -1.0484 21.037106614939 1.078077122584687 3.430802334558051 -1 0 0
2523 841 2 0.5242 21.962997408229686 1.2001738028150921 3.220859975196435 -1 0 0
1371 457 2 0.5242 20.990119717000102 36.61838521086944 1.0144310163615105 -1 4 -1
1369 457 1 -1.0484 21.219733752768885 35.69298382283116 0.9297741160267108 -1 4 -1
1370 457 2 0.5242 22.170897291700477 35.69057653528611 0.8223528421229307 -1 4 -1
813 271 2 0.5242 19.501502721240435 6.081203555253267 3.387887594537648 1 -5 0
572 191 2 0.5242 20.092107349479836 1.3197311836868677 1.9352957452632198 1 -1 -1
2281 761 1 -1.0484 23.305634742400443 35.27490987966474 5.018333613996146 -5 0 2
647 216 2 0.5242 20.445194486959043 2.3304421886352102 6.646833408346485 2 -1 2
646 216 1 -1.0484 19.818668156699882 2.0537298282970746 5.978139453655543 2 -1 2
648 216 2 0.5242 18.963112918561748 2.281779055377838 6.3418364371635105 2 -1 2
4149 1383 2 0.5242 21.04375347049529 4.4272276737024345 6.599769229300376 -2 1 1
4147 1383 1 -1.0484 21.256875354529793 5.32530815545366 6.346219831058857 -2 1 1
4148 1383 2 0.5242 22.16489551825905 5.444268730448871 6.624799726399206 -2 1 1
2283 761 2 0.5242 22.959575296681116 35.83960568110989 5.709432902889368 -5 0 2
4262 1421 2 0.5242 23.474178725315124 5.949210521303475 2.7009566542235826 0 1 3
4416 1472 2 0.5242 24.1083229031789 36.494789571398 2.2177468126925404 -1 0 2
4415 1472 2 0.5242 24.478048149397683 0.8495122378051494 3.029122039402237 -1 1 2
4414 1472 1 -1.0484 23.79726991752487 0.1838430027570096 2.930724728167915 -1 1 2
3448 1150 1 -1.0484 28.27651487355928 34.262086418342534 2.9363965812642303 -2 3 3
3865 1289 1 -1.0484 25.72326982311762 2.6636752907189627 2.8974258713781262 0 -1 1
3867 1289 2 0.5242 26.59715234156477 2.2915467318161356 2.7786555927628647 0 -1 1
3449 1150 2 0.5242 28.333054202493848 35.20577252626352 3.086451895101801 -2 3 3
4460 1487 2 0.5242 28.046264358239192 3.0126739756490832 36.46055976182677 0 -1 0
3717 1239 2 0.5242 28.87520763887921 2.470147371993278 4.034457596058605 2 -2 -4
4461 1487 2 0.5242 29.30848029256423 3.6880160297272235 0.05952115298752381 0 -1 1
4459 1487 1 -1.0484 28.54568525483269 3.8263661296044558 36.39170684733925 0 -1 0
3627 1209 2 0.5242 28.55742277924206 36.632034666319846 36.17012011967226 -6 -1 -2
3715 1239 1 -1.0484 28.750621596862047 2.9109355183287913 3.1939567727631175 2 -2 -4
3716 1239 2 0.5242 28.409202534576316 3.77499036231239 3.424389514744894 2 -2 -4
3450 1150 2 0.5242 27.936459537103996 34.18071830998298 2.0453304043792038 -2 3 3
4106 1369 2 0.5242 28.323006058051774 6.783869499354098 2.6601844917441504 -4 1 0
3866 1289 2 0.5242 25.435257755482656 2.88713224355518 2.012341521861277 0 -1 1
2328 776 2 0.5242 30.322721120435343 36.56595666659006 1.2176220171348748 0 -2 1
2327 776 2 0.5242 29.952494015635196 0.9146003939344872 2.0378636877326963 0 -1 1
2326 776 1 -1.0484 30.55135350185082 0.16809551394168826 2.0190146595757357 0 -1 1
20 7 2 0.5242 31.841193544545238 3.6842054384544176 1.5707700623323833 -4 0 2
2652 884 2 0.5242 0.7151591652334545 3.3357866305417136 1.5602280130754413 0 -3 0
19 7 1 -1.0484 30.933484774157563 3.98143485047981 1.5077110725991927 -4 0 2
4298 1433 2 0.5242 35.27045403197593 5.817555649352801 0.6017172330337739 1 0 -3
2217 739 2 0.5242 35.262289600385415 6.929202999844071 2.6039492023031685 -1 -1 3
1808 603 2 0.5242 32.59316692289866 5.005265984402611 6.638803759053054 0 -1 -2
2215 739 1 -1.0484 35.19566969272675 7.170250999149361 1.6799817953309673 -1 -1 3
4297 1433 1 -1.0484 34.95392115201135 5.117399731523341 0.030888735501918063 1 0 -3
1807 603 1 -1.0484 33.49748234759494 4.695844778032966 6.586562048530559 0 -1 -2
1809 603 2 0.5242 33.43343889269566 3.836667951091623 6.169461665885217 0 -1 -2
934 312 1 -1.0484 32.54527884744826 1.930266308563437 2.282442954839715 6 3 2
935 312 2 0.5242 33.12517255504757 1.6977575246493863 1.5572398179473412 6 3 2
3898 1300 1 -1.0484 34.913602345443536 2.1636828505343133 0.5388199130028629 -1 -2 2
3900 1300 2 0.5242 35.58121127224338 1.953644324522175 1.1918428396003442 -1 -2 2
3899 1300 2 0.5242 35.21396170862535 1.7295565414065857 36.63400297952833 -1 -2 1
2102 701 2 0.5242 33.08369068527696 2.9460818499589894 4.2575054307255975 1 1 -1
936 312 2 0.5242 31.85940669881823 1.2627904668492875 2.264769344005785 6 3 2
21 7 2 0.5242 30.543265937666902 3.740899651842331 2.348025856802614 -4 0 2
96 32 2 0.5242 31.180955651666352 6.095377306924469 0.5831700914808706 0 1 -2
2650 884 1 -1.0484 0.5536356351990086 3.2732947912211614 2.501642726833763 0 -3 0
2101 701 1 -1.0484 33.56421245306527 2.530844360269865 4.973699251731 1 1 -1
448 150 1 -1.0484 4.705164280826067 6.626075576150268 4.263246854013252 0 -1 2
450 150 2 0.5242 4.492387208008394 5.873381263515976 3.7114912855400277 0 -1 2
65 22 2 0.5242 35.686081982572304 6.567319917517395 5.010934846752177 -2 5 0
64 22 1 -1.0484 35.13729223774658 6.274958207497287 4.2831903614114735 -2 5 0
66 22 2 0.5242 34.31621692269103 6.7543186722071145 4.3941215081542 -2 5 0
4243 1415 1 -1.0484 3.4015961833628996 8.906871294348909 4.019725244846287 2 0 -1
4244 1415 2 0.5242 3.9254299982293825 9.706744009374628 3.9743509773946646 2 0 -1
3410 1137 2 0.5242 2.063264622161209 7.3434394584318206 3.538550315139567 1 3 1
2936 979 2 0.5242 2.6388119282660703 11.878915691554578 2.332459300064421 -2 1 -1
2108 703 2 0.5242 2.2178269628593683 6.201604334514061 1.2899331017030558 -2 -2 1
152 51 2 0.5242 36.8753217806958 9.66417378033275 0.887025419949659 1 0 0
153 51 2 0.5242 1.20184387815086 9.723336068574977 1.8244257819298144 2 0 0
151 51 1 -1.0484 0.2815269093136184 9.463256079312664 1.784018679994839 2 0 0
4245 1415 2 0.5242 4.045509125440591 8.198735797619012 4.0330932790806555 2 0 -1
2935 979 1 -1.0484 2.671847929903122 11.220642182197992 1.6383115495410674 -2 1 -1
3409 1137 1 -1.0484 1.5523321766381262 6.674809418183712 3.082327775721204 1 3 1
983 328 2 0.5242 36.27045260044895 10.176213000805909 3.193797212021061 -1 -3 0
3817 1273 1 -1.0484 3.2986754126125657 9.707125463638075 7.075670484872308 -1 -2 0
3818 1273 2 0.5242 3.4361179430441404 9.160477492680492 6.302015404207436 -1 -2 0
2107 703 1 -1.0484 2.313088370708726 5.798345568472986 0.42705130626601223 -2 -2 1
2109 703 2 0.5242 3.0540641869020955 6.255315999097223 36.92273427290136 -2 -2 0
4119 1373 2 0.5242 1.5489411537843008 13.171566425047693 0.2032660366774195 1 -1 3
2186 729 2 0.5242 10.8942403779449 6.06673307218654 3.2701395781074067 -1 -3 -3
2358 786 2 0.5242 9.811686785208009 7.588775783860532 3.398886478304116 -1 1 -3
3094 1032 1 -1.0484 8.097119486543136 9.747324560321799 4.801460404694852 1 0 0
848 283 2 0.5242 8.569034425658407 7.864638782037418 1.4693030248258476 0 4 3
2357 786 2 0.5242 8.99728911474348 8.805771273475234 3.783119931835016 -1 1 -3
2356 786 1 -1.0484 9.534079743674935 8.44634950681554 3.0767713107619397 -1 1 -3
4419 1473 2 0.5242 11.821151263768513 9.00824501442692 6.214314310921484 0 0 -2
4418 1473 2 0.5242 11.96605718423221 9.378587778193674 4.753558888924727 0 0 -2
1468 490 1 -1.0484 5.803720996811199 10.880545571579917 3.617477044719757 -1 -2 1
1469 490 2 0.5242 6.5924254951725185 10.445355295844582 3.9412242752829876 -1 -2 1
3096 1032 2 0.5242 7.887332283110564 9.430982765637582 5.680195330559263 1 0 0
1040 347 2 0.5242 10.516556672339501 9.796997544672541 3.1666373680840225 1 -2 3
1039 347 1 -1.0484 10.938302053216603 10.650302364406961 3.2679203831040136 1 -2 3
3095 1032 2 0.5242 8.622157254630753 10.53405436826814 4.9486028631265215 1 0 0
1470 490 2 0.5242 5.960385135493594 10.995029258470852 2.680136679247484 -1 -2 1
1329 443 2 0.5242 12.490245294551684 12.988923139869762 1.5888840826561985 1 2 -2
1193 398 2 0.5242 5.383760455246113 15.173854850858364 0.6046912561633551 2 1 1
847 283 1 -1.0484 8.247314590634408 7.424537210028821 0.6824960715230642 0 4 3
849 283 2 0.5242 7.805024845765242 8.113222694380855 0.18616066084556596 0 4 3
2598 866 2 0.5242 14.853428803025242 6.201519360946167 4.273315071123451 2 -2 5
2596 866 1 -1.0484 14.563425300078716 6.368563081357976 3.3765145480290855 2 -2 5
2597 866 2 0.5242 15.357598038094014 6.634639762086123 2.913102850928034 2 -2 5
811 271 1 -1.0484 18.662745336311737 5.980904019356396 3.838090517696091 1 -5 0
4417 1473 1 -1.0484 12.446460117153386 8.999545976774783 5.489627724875148 0 0 -2
685 229 1 -1.0484 16.972161528387428 7.437590855112858 1.997798046911586 0 -2 2
4250 1417 2 0.5242 16.579726974658072 10.118452315655269 1.3018554036844108 0 1 -2
4249 1417 1 -1.0484 16.27244388901835 10.966766974610145 1.62153675499058 0 1 -2
3597 1199 2 0.5242 15.667798884962647 8.055542772052029 5.744286330818268 -2 1 1
1959 653 2 0.5242 13.061192852873637 6.8930614499021 5.83099210220886 -1 0 0
3595 1199 1 -1.0484 15.454867013555734 8.981859092100702 5.857668410663825 -2 1 1
4251 1417 2 0.5242 16.726512532197127 11.08778094706284 2.455464124179988 0 1 -2
686 229 2 0.5242 17.799656953199303 7.286319480037102 2.454552893516029 0 -2 2
687 229 2 0.5242 17.228548770086952 7.646329224579857 1.099493172551829 0 -2 2
3596 1199 2 0.5242 14.517320660896642 9.036985416779878 5.672667936906226 -2 1 1
864 288 2 0.5242 16.4761667087868 5.958388071015379 6.496561470195873 -1 -2 1
862 288 1 -1.0484 16.529669448663014 6.500395997448098 5.709401088525725 -1 -2 1
863 288 2 0.5242 17.299491060550242 6.1727904285502575 5.244312586446519 -1 -2 1
2279 760 2 0.5242 18.23124203554566 10.391007703431384 3.721572133323149 -1 -1 1
730 244 1 -1.0484 19.7901991118675 9.729928292762203 2.704835238603823 1 -4 1
732 244 2 0.5242 20.375416784420533 8.972609329354958 2.7205149062245715 1 -4 1
3753 1251 2 0.5242 12.836281308835302 5.974878428889626 2.3043468793311437 -1 0 -1
1041 347 2 0.5242 11.364816975828811 10.808674081764915 2.4257446557873363 1 -2 3
3851 1284 2 0.5242 21.765261785868443 10.33447377755604 3.4710984124146016 -3 0 0
1703 568 2 0.5242 22.17777940510265 12.029000258413578 1.2707604715121454 -1 -1 -1
1702 568 1 -1.0484 21.332471727066245 11.610746678515179 1.1071282261840474 -1 -1 -1
1704 568 2 0.5242 21.552326715899152 10.709536098427412 0.8710353395876788 -1 -1 -1
1501 501 1 -1.0484 23.770563347656754 12.644993348273893 0.8055080484991449 -1 -3 0
1502 501 2 0.5242 23.456233636551737 13.06275766750795 36.89734709793572 -1 -3 -1
1503 501 2 0.5242 24.054315502333065 11.774232168313661 0.5270905731800903 -1 -3 0
1155 385 2 0.5242 23.986683940849225 10.00597844358983 4.31252280395397 1 0 -1
731 244 2 0.5242 19.812418619218885 10.031631063569321 1.7966841054883083 1 -4 1
3850 1284 1 -1.0484 22.349716252317062 10.407787513670053 4.225615331025045 -3 0 0
3852 1284 2 0.5242 21.827736642703293 10.856465532300566 4.890809536763312 -3 0 0
636 212 2 0.5242 21.81839585480543 8.555057690370639 3.883042479998741 2 0 -1
634 212 1 -1.0484 21.43666879391367 7.727534672413326 3.5902168032805735 2 0 -1
1462 488 1 -1.0484 24.432605472796443 10.154573056479553 0.44980667821898057 -4 -1 3
4261 1421 1 -1.0484 23.106610718149934 5.285276221131519 3.284344824388387 0 1 3
3989 1330 2 0.5242 27.303497501074766 4.96135572415262 4.456991500360434 -5 1 3
3990 1330 2 0.5242 26.154200423646692 4.696199854086623 3.507904645023054 -5 1 3
3988 1330 1 -1.0484 26.9783007819466 5.177319409569717 3.582998649036411 -5 1 3
4263 1421 2 0.5242 22.336532972846964 5.7037634554983345 3.6691894878338482 0 1 3
884 295 2 0.5242 25.8729615440458 6.628919920870949 3.6187008098465507 2 -2 -3
101 34 2 0.5242 26.061298172074093 9.79350751101802 1.2313157571586064 -2 0 3
100 34 1 -1.0484 26.822155244499246 9.275650906621056 1.4943342411041232 -2 0 3
4267 1423 1 -1.0484 27.015896158634266 10.675527856196597 3.9571626740592243 -1 -1 -4
4269 1423 2 0.5242 26.09263450745398 10.579031789635811 4.190689300229488 -1 -1 -4
4268 1423 2 0.5242 27.100951859264462 11.590061330113217 3.687624433477605 -1 -1 -4
1160 387 2 0.5242 28.644829432614674 9.53808213185912 4.286208969311184 1 2 2
885 295 2 0.5242 25.017241927470156 7.874791990344736 3.705334441540739 2 -2 -3
883 295 1 -1.0484 25.165153442725607 7.093631005061138 3.172261068378801 2 -2 -3
1154 385 2 0.5242 24.65863087210676 9.366140630018439 5.5087888043591 1 0 -1
1153 385 1 -1.0484 24.77931047327526 9.537812978121758 4.574860653439855 1 0 -1
4110 1370 2 0.5242 26.68477404211164 13.397108720175495 5.749268336843016 -1 0 -2
4108 1370 1 -1.0484 27.21859923329124 13.348190071802334 4.956239872071964 -1 0 -2
4109 1370 2 0.5242 28.029459484639176 12.924996044399354 5.2384968159301035 -1 0 -2
102 34 2 0.5242 26.897349239752725 9.42149952136741 2.4373781921887314 -2 0 3
4107 1369 2 0.5242 28.210316474968163 7.940295100282387 1.6896493263211325 -4 1 0
2064 688 2 0.5242 28.22986369047985 10.027268615553929 0.35480193168228735 0 0 3
2216 739 2 0.5242 35.535250965854814 8.064316072367495 1.640119197094567 -1 -1 3
1159 387 1 -1.0484 29.440970484380244 9.07255531323225 4.542532163490907 1 2 2
2026 676 1 -1.0484 33.5205290157965 9.897039661343307 1.9615229254984972 -2 1 3
2027 676 2 0.5242 34.330016461245805 10.076943211251399 2.4396674781083374 -2 1 3
3576 1192 2 0.5242 33.00557845990096 9.62702902948928 5.870174370871681 0 0 1
4257 1419 2 0.5242 32.613703565605206 8.748002096410925 2.930330334574118 1 0 1
2028 676 2 0.5242 33.118130446330866 10.756851834332517 1.838822704845593 -2 1 3
3323 1108 2 0.5242 34.78106695355953 12.359513149229583 3.7453158941743827 -3 1 3
1161 387 2 0.5242 29.607559772857222 8.46648702162261 3.820599689730673 1 2 2
4255 1419 1 -1.0484 32.179620314866824 8.065520799062234 3.44223615079209 1 0 1
3575 1192 2 0.5242 32.43986975160463 8.495923766740061 5.0379894834485 0 0 1
3574 1192 1 -1.0484 32.8305801424262 8.686176238487244 5.890870672028241 0 0 1
2569 857 1 -1.0484 35.13949425537271 12.744211103365988 0.7372310040681685 2 0 1
3105 1035 2 0.5242 31.261123913691097 12.87459738254809 1.393837124526861 -2 0 0
3103 1035 1 -1.0484 31.50781454772658 11.981684780168827 1.152782079271617 -2 0 0
2570 857 2 0.5242 35.859122661136496 13.173345323082886 1.2000869420718894 2 0 1
4256 1419 2 0.5242 31.844977786163575 7.451495526557952 2.788597067195825 1 0 1
3411 1137 2 0.5242 0.7024199503831243 7.0867912694061825 2.9268390400138546 1 3 1
984 328 2 0.5242 35.87239055252901 10.590550314737687 4.594450631301864 -1 -3 0
982 328 1 -1.0484 35.5146920586361 10.437668172285024 3.7198438182183318 -1 -3 0
250 84 1 -1.0484 3.866550047652975 12.74686581818173 3.876631520316435 0 2 -2
2622 874 2 0.5242 1.8354786645326668 12.951834197675472 4.783318075299586 -1 -2 1
2620 874 1 -1.0484 0.93043916794688 13.135489202370282 4.5314628741787715 -1 -2 1
2621 874 2 0.5242 0.4023285317847294 12.711384561156875 5.207844008388841 -1 -2 1
1054 352 1 -1.0484 1.949940690060952 19.928126209546917 3.7676649467301173 0 -1 1
1056 352 2 0.5242 2.0072972743342854 18.98203221573957 3.901356127884826 0 -1 1
1749 583 2 0.5242 1.1889665390242863 16.879074641823834 3.8206445720129194 -4 -3 -1
2350 784 1 -1.0484 5.171105463304539 18.21241233009418 6.912491105561714 1 -1 1
2352 784 2 0.5242 4.469461604529631 18.232720337354984 7.563290875436202 1 -1 1
1747 583 1 -1.0484 2.0683207468394285 16.933268136219816 4.194885221007478 -4 -3 -1
58 20 1 -1.0484 2.8508625407400743 15.286081136329718 6.389649503073462 0 2 0
59 20 2 0.5242 2.713754372885164 15.966460843393891 7.048847492862528 0 2 0
2351 784 2 0.5242 5.827253829684142 18.823361491453745 7.24785402779723 1 -1 1
1748 583 2 0.5242 2.1822160761023484 16.10502482049674 4.6610377281728335 -4 -3 -1
252 84 2 0.5242 4.14626375513849 13.42685118280175 3.263738723917672 0 2 -2
1055 352 2 0.5242 1.6159722091634534 20.024663835898068 2.8758113521411524 0 -1 1
2300 767 2 0.5242 5.473639615709343 15.370790416841087 3.95780201685694 0 -1 -1
1804 602 1 -1.0484 4.154102512050544 20.98140689071509 10.543478250449995 0 1 0
4323 1441 2 0.5242 1.3673044461602906 19.37801808568495 6.368023929536054 0 -1 -1
4117 1373 1 -1.0484 1.3470167498177275 12.885674721414894 36.20600605966264 1 -1 2
2493 831 2 0.5242 2.777133547763694 16.88150688900024 1.4179516200574613 -1 2 0
2492 831 2 0.5242 3.9708850408702734 17.05437755661466 2.33284512308723 -1 2 0
2491 831 1 -1.0484 3.727282472235118 16.770464434531625 1.4517617768306117 -1 2 0
2299 767 1 -1.0484 5.630372097040833 15.194778736554088 3.030055931219318 0 -1 -1
251 84 2 0.5242 4.664165614696058 12.253499295551308 4.0680898787627555 0 2 -2
1373 458 2 0.5242 9.724852125855545 15.255968710051876 0.8233955548619694 1 1 2
1374 458 2 0.5242 8.971719009597019 15.78391491336521 2.02590137882894 1 1 2
1372 458 1 -1.0484 9.52634550274713 15.058526388537002 1.7387471304660789 1 1 2
4404 1468 2 0.5242 6.30621810744958 20.565988860251192 5.838130667485701 -1 -2 0
4402 1468 1 -1.0484 7.096780356967481 20.059566357542195 6.0246904473806735 -1 -2 0
1973 658 2 0.5242 8.528519778672809 19.07750994487678 3.480307882078079 0 -1 0
4202 1401 2 0.5242 8.08999782009599 12.839980579792432 3.5476692874594673 1 2 0
4201 1401 1 -1.0484 7.7579104321448344 13.174209542248775 2.714442472117199 1 2 0
4203 1401 2 0.5242 8.503471499613289 13.630895754963888 2.324782711581516 1 2 0
1444 482 1 -1.0484 9.28152777029152 17.942216917878802 0.42783444670735427 -1 0 2
4403 1468 2 0.5242 7.624462617979337 20.136877240273712 5.229811822982215 -1 -2 0
1328 443 2 0.5242 11.317253640545841 13.94504655509153 1.6322321449901371 1 2 -2
1327 443 1 -1.0484 12.269073558478949 13.909875022077358 1.7274093715021783 1 2 -2
3514 1172 1 -1.0484 9.21600106749622 12.056727557688175 4.686092530415758 1 2 1
3515 1172 2 0.5242 9.89151477509043 11.810760669951115 4.054081336796826 1 2 1
874 292 1 -1.0484 7.029392204664705 17.528095301264887 2.8962921207852625 0 -2 2
2301 767 2 0.5242 6.28179773517182 14.493435329748172 3.0255535299309155 0 -1 -1
2280 760 2 0.5242 17.10115978541689 9.91925948257362 4.611698893793534 -1 -1 1
2278 760 1 -1.0484 17.43482613690493 10.693335331213621 4.158123792119509 -1 -1 1
1534 512 1 -1.0484 15.772872012879596 15.005227626489726 4.7607356099296965 1 1 4
2345 782 2 0.5242 12.103196443874163 16.729071068471455 3.912892469560367 1 0 1
2346 782 2 0.5242 10.77139033050364 16.748886324137576 4.6325155111060665 1 0 1
2344 782 1 -1.0484 11.42706725178355 16.15318424290819 4.269908971149401 1 0 1
1536 512 2 0.5242 15.398112656797682 14.704148557727384 3.9329896345385826 1 1 4
3689 1230 2 0.5242 15.799618700810543 17.400965062483326 4.9505147458505085 -1 0 -2
565 189 1 -1.0484 17.73578740188379 16.17073979762867 2.9885092122558587 4 -1 -3
566 189 2 0.5242 17.213092880936948 15.909253418926399 3.7465809111129986 4 -1 -3
567 189 2 0.5242 17.645561989053935 15.443678294921092 2.372474730269715 4 -1 -3
1104 368 2 0.5242 12.0477676502473 14.45532327616498 4.354477030264693 -1 3 -1
1102 368 1 -1.0484 12.345084333224055 13.55508867612807 4.48652787894559 -1 3 -1
1103 368 2 0.5242 12.380701196469099 13.18244520566121 3.6055484402963227 -1 3 -1
576 192 2 0.5242 14.215177892837593 14.824487043821197 1.8230513349457582 -1 -4 2
4224 1408 2 0.5242 15.007957367859463 16.991636310047294 1.5687694370952472 -1 -1 0
575 192 2 0.5242 15.158571081904908 14.590665764064044 0.6623203925744139 -1 -4 2
574 192 1 -1.0484 15.079612432738719 15.065268247831682 1.4898319893986667 -1 -4 2
681 227 2 0.5242 20.293041572608264 12.535223630569654 2.2310159731700208 -1 -2 0
679 227 1 -1.0484 19.93361137103439 13.20767021082402 2.809706121063638 -1 -2 0
680 227 2 0.5242 20.122708491377804 12.890404556965592 3.6927924610263263 -1 -2 0
4223 1408 2 0.5242 13.596496365722224 17.36377178307265 1.1672089806265895 -1 -1 0
3688 1230 1 -1.0484 15.745729946056196 18.31282867833159 5.23662291641461 -1 0 -2
3690 1230 2 0.5242 16.36787796635302 18.37408432168109 5.96149394830271 -1 0 -2
923 308 2 0.5242 22.243129145530297 14.493283423271878 3.0716248763066996 2 -4 2
924 308 2 0.5242 23.636444951368375 14.251219693921403 3.612026219751437 2 -4 2
922 308 1 -1.0484 22.75787609069746 14.522448474906868 3.878124614331567 2 -4 2
4086 1362 2 0.5242 24.19388052607578 17.933079829663523 2.3951454879633465 1 0 0
2183 728 2 0.5242 21.29560330345836 17.01919268080237 3.1759603647018855 -1 1 0
2184 728 2 0.5242 22.578967349031746 16.229265734973133 3.031220057560057 -1 1 0
2182 728 1 -1.0484 22.14253835650325 17.026156203365016 2.729967501896446 -1 1 0
2169 723 2 0.5242 19.356898604248673 14.219549621607486 1.655003060084535 3 2 2
4222 1408 1 -1.0484 14.31753020846355 17.633131434764273 1.7362543713869407 -1 -1 0
2044 682 1 -1.0484 29.576357797424834 14.903536990188606 2.2861559789485275 1 -1 2
2046 682 2 0.5242 28.641826367007365 15.082654585217348 2.390198677005234 1 -1 2
2045 682 2 0.5242 29.98121756926674 15.768768580035694 2.225166465817716 1 -1 2
3561 1187 2 0.5242 25.94939810687876 16.614006943344155 2.3901595439290064 1 1 2
3408 1136 2 0.5242 25.33568989063209 16.17093354834922 36.68686754714565 -1 -4 1
3407 1136 2 0.5242 26.566445078583065 15.305401545650671 36.51937748551104 -1 -4 1
754 252 1 -1.0484 30.02258978012409 17.89939351452371 1.8906001537087713 -1 2 0
755 252 2 0.5242 30.71817406831329 18.173173615848423 2.4884835183173704 -1 2 0
4085 1362 2 0.5242 24.242676423345575 18.083287329408833 0.8894847928650217 1 0 0
4084 1362 1 -1.0484 24.784372403726252 17.85720315040955 1.645599085138921 1 0 0
302 101 2 0.5242 26.35862280043245 16.894008187453895 6.289918733689008 -1 3 1
3560 1187 2 0.5242 27.303864598191506 16.3684038818227 3.0202840474742563 1 1 2
3559 1187 1 -1.0484 26.640472685986712 15.956146453410454 2.4669201772164793 1 1 2
2508 836 2 0.5242 25.7154525146525 13.098115159499635 1.299507816243786 -2 0 3
2506 836 1 -1.0484 26.609172854543374 13.156030715637051 1.6373939537670619 -2 0 3
2507 836 2 0.5242 26.528778050437264 13.668036689058743 2.442157325254903 -2 0 3
1045 349 1 -1.0484 32.30605203629251 16.082694392189467 1.4528752357559076 1 1 -2
1047 349 2 0.5242 32.09047288483272 15.50139099179672 0.7235819070322422 1 1 -2
1046 349 2 0.5242 31.514207203391578 16.603573974895582 1.5867549512176575 1 1 -2
3284 1095 2 0.5242 33.51422989914728 14.46756550675754 3.8945421899206347 -3 2 3
3285 1095 2 0.5242 32.743164184130265 15.57164719596139 3.2028635747349834 -3 2 3
3322 1108 1 -1.0484 34.65798409049985 13.29380316672968 3.5773578359391274 -3 1 3
507 169 2 0.5242 36.87221081990587 14.923589813112061 2.1964245686569672 -4 -1 2
2403 801 2 0.5242 36.843664163319005 17.539592829085294 1.2731675968611014 -2 -1 0
2401 801 1 -1.0484 36.70154088866926 16.911531278960837 1.9814022618690104 -2 -1 0
3283 1095 1 -1.0484 32.902052316495414 15.183786480307505 4.063430414429803 -3 2 3
1283 428 2 0.5242 33.27936344677059 17.406736723599955 6.733484518335881 0 0 -3
1282 428 1 -1.0484 33.380425790137465 17.493413535600347 5.785576276927817 0 0 -3
1284 428 2 0.5242 33.11261965641205 16.643130817534292 5.436927753434493 0 0 -3
3324 1108 2 0.5242 34.576641758351414 13.35789629314752 2.625762928771864 -3 1 3
353 118 2 0.5242 33.478938270006935 17.043250884097155 0.559066346162391 -3 0 2
354 118 2 0.5242 34.048764643928735 16.850063665300734 36.06351169558555 -3 0 1
505 169 1 -1.0484 0.23921708392313162 14.026962120452163 1.950620722764496 -3 -1 2
2402 801 2 0.5242 36.17966269771303 17.39014886624678 2.6254714123256555 -2 -1 0
2341 781 1 -1.0484 36.44922322269376 18.434472863795232 36.71447208583743 -3 -1 0
3684 1228 2 0.5242 34.979168577119225 17.8371045789322 4.7514930735885414 1 1 2
506 169 2 0.5242 0.273552538466012 13.551864968900444 2.780898745526377 -3 -1 2
352 118 1 -1.0484 33.582822614153585 17.483609894728904 36.60919832995971 -3 0 1
2445 815 2 0.5242 33.0745680741278 13.325461693263088 36.6180638216005 -2 -2 -1
4076 1359 2 0.5242 2.2512003403406973 20.63884291081233 0.11449291064569361 2 -1 -1
4075 1359 1 -1.0484 1.5299602106641976 20.605249452259702 0.7429360062213639 2 -1 -1
4077 1359 2 0.5242 1.3485738893781325 21.52217962108766 0.9493215618745383 2 -1 -1
4338 1446 2 0.5242 2.9439202744257327 20.537884435297055 5.024300276537758 1 -1 0
4337 1446 2 0.5242 3.298349001365175 20.538660309116707 6.496148567121539 1 -1 0
4336 1446 1 -1.0484 3.562945702121632 20.908015487155385 5.653639138008593 1 -1 0