LAMMPS data file via write_data, version 23 Jun 2022, timestep = 2000822

4500 atoms
2 atom types
3000 bonds
1 bond types
1500 angles
1 angle types

0.058876857393986626 36.9281231426017 xlo xhi
0.05089239287738323 36.92810760712098 ylo yhi
0.02594094126189006 36.92805905872957 zlo zhi

Masses

1 15.9994
2 1.00794

Pair Coeffs # lj/cut/tip4p/long/gpu

1 0.16275 3.16435
2 0 0

Bond Coeffs # harmonic

1 250 0.9572

Angle Coeffs # harmonic

1 60 104.52

Atoms # full

2327 776 2 0.5242 6.943216786566186 0.9908208659065885 5.928341742969128 0 -2 1
2326 776 1 -1.0484 5.847520302857086 1.0395719681254791 5.735321999615621 0 -2 1
2328 776 2 0.5242 5.809569435405854 1.7600569318498804 5.040752221687747 0 -2 1
3365 1122 2 0.5242 2.0528516167674087 4.502185030444711 5.75792347634862 1 2 6
3366 1122 2 0.5242 0.7771492592383069 3.9583516852038816 5.087223917960577 1 2 6
3364 1122 1 -1.0484 1.8077407017563099 4.108671022211136 4.911667191885043 1 2 6
3773 1258 2 0.5242 7.013333150404374 0.628930671553789 1.0899798889026668 1 5 0
3310 1104 1 -1.0484 6.778102070045598 5.833054169600699 4.946043563695172 -1 -2 -2
795 265 2 0.5242 2.922798219719412 1.92423747543268 0.499085347623638 -3 -1 5
793 265 1 -1.0484 3.0758329302742986 2.1676445412721335 1.4368609918510007 -3 -1 5
794 265 2 0.5242 2.3530821465452125 2.7934131809075056 1.5688774845601416 -3 -1 5
725 242 2 0.5242 5.7085802099123635 2.7881707220930854 0.4469983422190878 0 -2 1
724 242 1 -1.0484 5.307035991192039 3.6945231675460515 0.5267432135226816 0 -2 1
3772 1258 1 -1.0484 6.657851417909609 1.2269919456250222 0.3647189331751068 1 5 0
1518 506 2 0.5242 4.457587040110566 35.009655772757554 2.000418020321743 -2 -4 4
726 242 2 0.5242 4.47063475647156 3.37919786692197 1.105889156642501 0 -2 1
819 273 2 0.5242 9.062663634297879 3.5476371672898526 3.1733239115952285 -2 1 2
818 273 2 0.5242 10.01829312715721 2.2630234867631436 3.502516022476798 -2 1 2
817 273 1 -1.0484 9.280993382443055 2.8578350415313936 3.900830393571825 -2 1 2
527 176 2 0.5242 11.947141986594152 2.1212815466604145 2.9102290979468863 0 0 1
526 176 1 -1.0484 11.169169047777146 1.4639572861666204 2.837036165309454 0 0 1
528 176 2 0.5242 11.389119153119097 0.7311277012038554 2.210830675964244 0 0 1
1280 427 2 0.5242 7.250276494797757 7.006959166987796 2.1590821770853488 3 -2 -3
1279 427 1 -1.0484 7.788741943141195 6.319883395369784 1.624697873322598 3 -2 -3
186 62 2 0.5242 12.834534223776512 35.949822243773866 1.542797717608931 -1 1 4
185 62 2 0.5242 11.678639347451192 35.29433381202671 2.3166850927391223 -1 1 4
184 62 1 -1.0484 11.910929092265759 35.90509941649226 1.5682646106725922 -1 1 4
1654 552 1 -1.0484 9.59326352882098 5.0977399710733575 2.874545274990818 0 3 0
1656 552 2 0.5242 8.900726817758873 5.708191105931619 2.4167544259409466 0 3 0
1655 552 2 0.5242 10.41536761251011 4.77067693366845 2.1706198608094844 0 3 0
162 54 2 0.5242 9.10783554042083 0.08645206630693458 5.481576383376025 1 -2 -3
1281 427 2 0.5242 7.099791539431957 5.645759433296973 1.654470447313165 3 -2 -3
692 231 2 0.5242 11.041808133648171 35.60645650713013 0.1638895183717559 2 -1 3
4369 1457 1 -1.0484 12.867525242020694 3.673828383967993 3.2387854829389657 -1 1 0
4370 1457 2 0.5242 13.184075542372733 3.617618850918998 2.2173892809635363 -1 1 0
4371 1457 2 0.5242 13.550605672515234 4.222360148003634 3.594936983933364 -1 1 0
3343 1115 1 -1.0484 17.89780283118601 6.874242955101313 1.5022318733222457 -2 -1 3
1812 604 2 0.5242 15.75121842039837 4.785672492248699 4.144834326424987 2 0 3
1810 604 1 -1.0484 15.152012361837981 5.538015680567345 3.94420271282319 2 0 3
1633 545 1 -1.0484 18.26098987755591 1.8516562803848706 6.631466444726556 2 0 2
1635 545 2 0.5242 18.163957459482404 0.9788556651504757 7.085762118286912 2 0 2
1634 545 2 0.5242 19.18374500592531 1.656106560195568 6.310671922792568 2 0 2
3345 1115 2 0.5242 18.218848653911344 6.46092388097574 0.6457640557004226 -2 -1 3
1811 604 2 0.5242 15.182814091206048 5.745415286066481 3.020421521952296 2 0 3
4472 1491 2 0.5242 14.182818674159526 0.8691203348337561 4.457262589681507 0 -1 4
4471 1491 1 -1.0484 14.298898425638876 36.84688369140784 4.065342298194866 0 -2 4
4473 1491 2 0.5242 14.411006449201329 36.43656747702552 4.8522685051387 0 -2 4
2250 750 2 0.5242 14.962991232282038 2.9611931604577886 0.8010081126167814 2 0 1
2248 750 1 -1.0484 14.004114498921677 3.2613846378555205 0.816464299645418 2 0 1
828 276 2 0.5242 18.807731435989417 0.3333456935222585 5.210259429754929 3 1 2
3034 1012 1 -1.0484 13.351069149075736 5.80729072491949 36.25366203272935 0 0 2
3035 1012 2 0.5242 13.969220926520732 6.313598076686177 36.72479838645303 0 0 2
826 276 1 -1.0484 18.613470082816782 36.886490408574886 4.398972233001757 3 0 2
383 128 2 0.5242 17.61112492619477 3.2333440720058966 5.79381139564562 -8 3 0
827 276 2 0.5242 19.30040559032078 0.39486180586035674 3.787404204780441 3 1 2
3071 1024 2 0.5242 17.311322030900744 3.3207141603507893 0.479655767589932 -2 5 0
3344 1115 2 0.5242 18.735268869175812 6.914004383542902 1.9887734375327557 -2 -1 3
2249 750 2 0.5242 14.05122994777987 3.956137621027162 0.16896762144286498 2 0 1
4138 1380 1 -1.0484 20.972244710504146 2.523894569991459 5.648351358181924 -2 0 1
4140 1380 2 0.5242 20.72965355231236 3.0720371975323166 4.814497118712039 -2 0 1
3178 1060 1 -1.0484 19.36214493627672 1.7357922568758017 0.8726097301307781 3 3 4
3180 1060 2 0.5242 19.76304714713277 1.053330296732794 0.1994695211719916 3 3 4
4139 1380 2 0.5242 21.7703941671183 2.1260602891539273 5.294240452185207 -2 0 1
720 240 2 0.5242 24.349129560442144 2.941122534890739 2.5043016523235573 -1 -1 -3
718 240 1 -1.0484 23.676742643503903 2.6531855548225938 3.249058270426706 -1 -1 -3
719 240 2 0.5242 23.248406610522224 3.4825436507056557 3.388112489423141 -1 -1 -3
4463 1488 2 0.5242 22.563282859717116 36.894330324749006 6.3074533854678085 -1 1 -2
4462 1488 1 -1.0484 22.46181470373998 36.61400912187548 5.352749339532721 -1 1 -2
4464 1488 2 0.5242 23.3178834104041 36.81728094571757 4.84208015269765 -1 1 -2
3044 1015 2 0.5242 25.103427595135912 7.342867705925516 0.46154287927992377 -1 2 1
3043 1015 1 -1.0484 24.496067221966122 6.646018482925151 0.26178675125652606 -1 2 1
3045 1015 2 0.5242 24.11154214400678 6.91676111620966 36.341484022933514 -1 2 0
2512 838 1 -1.0484 20.118473996202287 7.145788514544495 2.9372101379196582 -2 2 3
2065 689 1 -1.0484 19.96256997978579 4.699653853260705 4.493198132583735 -3 0 -1
2067 689 2 0.5242 20.201938325435695 5.341496703601025 3.7982148930501447 -3 0 -1
1187 396 2 0.5242 22.271938248099865 34.43621925035259 4.244048022525826 -2 0 3
3512 1171 2 0.5242 19.061781341251365 3.6645708477085677 7.263917830029526 3 -2 2
3179 1060 2 0.5242 19.803617345359616 1.534020593535023 1.8077792726325939 3 3 4
3634 1212 1 -1.0484 24.08087028753935 0.09050931689645272 3.3969261352553284 -4 -1 0
3636 1212 2 0.5242 24.058637499799772 1.1727784482736163 3.35131743711222 -4 -1 0
3635 1212 2 0.5242 24.732773696714705 36.77498293543478 2.6671366990060985 -4 -2 0
2839 947 1 -1.0484 28.616042618980927 1.814884100345365 5.386322393777122 2 2 -1
2840 947 2 0.5242 28.613177145769047 2.8215956924839216 5.377008269028702 2 2 -1
2841 947 2 0.5242 29.55753859055391 1.679492894687305 5.272033239461558 2 2 -1
2034 678 2 0.5242 27.35527162477517 2.8161174276321956 2.1316024002808445 -1 2 0
2032 678 1 -1.0484 27.153460695651003 1.9752384300570434 2.5862856283159927 -1 2 0
2033 678 2 0.5242 27.281861792453764 2.2298822037866293 3.5204498842842966 -1 2 0
232 78 1 -1.0484 27.244120743139813 5.667579785440732 5.876541322388988 0 -4 3
234 78 2 0.5242 27.385723903664964 6.611619982739517 5.863835159621303 0 -4 3
1985 662 2 0.5242 24.558105974358696 4.751520635219756 1.0993155459531563 0 0 0
233 78 2 0.5242 26.702322858102754 5.612309985774931 5.0513222955422385 0 -4 3
3282 1094 2 0.5242 25.57509139072119 6.099015732642919 2.7418908769064867 -1 3 1
3280 1094 1 -1.0484 25.354319527258415 5.487203145017233 3.5572405649676573 -1 3 1
1356 452 2 0.5242 28.608458794332087 4.973971590925799 5.642978386438275 2 1 0
1354 452 1 -1.0484 29.480200770930047 4.444818555839457 5.325117579627447 2 1 0
1984 662 1 -1.0484 24.440999095081665 3.7971318648767682 1.1437563391137693 0 0 0
3169 1057 1 -1.0484 30.918067778738063 2.681665844565702 0.825177702788399 2 0 3
1788 596 2 0.5242 35.298892124338565 1.371419433797498 3.605996551422799 2 -1 -2
1786 596 1 -1.0484 35.91038232459448 2.0940261663389803 3.3990206961522564 2 -1 -2
1787 596 2 0.5242 35.253252981084785 2.905525232449632 3.298359442703171 2 -1 -2
3170 1057 2 0.5242 30.23031894327962 2.067993725118662 1.1493022061887606 2 0 3
1676 559 2 0.5242 1.3150816634131022 4.256509730586913 3.2643705667023935 -1 -4 0
3020 1007 2 0.5242 30.388877545655195 4.654704763124076 3.731583359479793 1 2 4
3019 1007 1 -1.0484 31.076132956976394 4.450034764999734 3.018165034300723 1 2 4
3171 1057 2 0.5242 30.596928957542804 3.474802218908354 1.4347623278317085 2 0 3
1675 559 1 -1.0484 0.7338292712290351 4.004544137783013 2.4135223877817125 -1 -4 0
1677 559 2 0.5242 0.20893742017096933 3.198792260990678 2.8047577751074746 -1 -4 0
1919 640 2 0.5242 31.729210916308975 1.5748698467191509 3.170753936248882 4 3 2
1918 640 1 -1.0484 32.69100936844265 1.5504730951933419 3.5197502657083835 4 3 2
1920 640 2 0.5242 33.08362341443342 1.6925174000760872 2.66705284475151 4 3 2
2740 914 1 -1.0484 33.91248802919402 3.006164663561919 0.6785723958487547 2 0 2
2742 914 2 0.5242 33.046862369406355 3.391705674954896 0.8230820790482194 2 0 2
2523 841 2 0.5242 31.628650455321875 6.163426531260378 0.5892268345151891 2 2 4
3695 1232 2 0.5242 0.37784097639713604 5.607080493217084 1.5455713183444832 2 -2 -2
1628 543 2 0.5242 3.786438368107155 6.975459348563688 3.8997127262076474 -2 2 -1
1627 543 1 -1.0484 3.4065682832880113 6.179356690160889 3.5031321061811753 -2 2 -1
1629 543 2 0.5242 3.698858096737473 5.465071074958641 4.124254378965164 -2 2 -1
3696 1232 2 0.5242 0.672254237612184 6.743718810195298 0.5541133721972518 2 -2 -2
95 32 2 0.5242 4.807554680579486 9.502631976749637 4.317864139453038 0 -2 1
96 32 2 0.5242 3.4223608724361863 9.316613035158687 4.313354365424638 0 -2 1
3838 1280 1 -1.0484 6.691535581929322 8.260215852537725 2.9623203636683515 -2 3 5
3839 1280 2 0.5242 6.254791134961105 9.192050692579944 2.9292260235215335 -2 3 5
1921 641 1 -1.0484 3.6894413278441887 10.015026143123995 7.224330533199295 -1 0 -1
1923 641 2 0.5242 4.509788677919702 9.486714938409786 6.819782441443185 -1 0 -1
2655 885 2 0.5242 35.275939103582914 12.588760356438724 5.692134439275297 -1 2 2
2653 885 1 -1.0484 35.439732681635945 12.895689024948945 4.754938848300559 -1 2 2
3100 1034 1 -1.0484 0.0966200797868148 13.249899889143471 2.000083799591465 2 0 2
4478 1493 2 0.5242 1.2678460774857077 10.217020367106455 0.9723115430419373 2 1 1
4479 1493 2 0.5242 0.6619933125953753 9.69446337486985 2.3223746934203806 2 1 1
4477 1493 1 -1.0484 1.065945131354505 10.585365413385649 1.8671714704128715 2 1 1
94 32 1 -1.0484 4.196657346621825 8.787420176089396 4.51196166974478 0 -2 1
3101 1034 2 0.5242 0.26549085117934335 12.250253909864181 1.9107237873276246 2 0 2
1029 343 2 0.5242 10.093698968532403 10.760270870217173 0.5140416366219276 4 1 1
2373 791 2 0.5242 7.4561569806761225 10.384314454563427 34.984202088763936 0 -1 2
1027 343 1 -1.0484 9.563283989246166 10.779507750467596 1.3344430349588203 4 1 1
1028 343 2 0.5242 9.083846118565793 9.797931059533491 1.1940533794954793 4 1 1
3840 1280 2 0.5242 7.031438059477035 8.361551021907779 3.8281906005955566 -2 3 5
3891 1297 2 0.5242 4.257032526333433 10.120302848023705 1.3502616675339743 1 -1 3
3692 1231 2 0.5242 8.947155983263626 7.72246008134026 5.399319112257728 1 -1 1
218 73 2 0.5242 6.783326341687812 11.572023660975221 1.3747722248681864 -1 -1 -2
217 73 1 -1.0484 7.300582720983124 11.970464086249558 0.6827842967047153 -1 -1 -2
219 73 2 0.5242 8.248312875331242 11.493966585310103 0.8585979269885029 -1 -1 -2
2372 791 2 0.5242 6.920599745375169 10.755091153427188 36.252533381002706 0 -1 2
2371 791 1 -1.0484 6.621576224864965 10.58345774531186 35.37391316660941 0 -1 2
3889 1297 1 -1.0484 5.0133460187309025 10.602710653724229 1.7437161393660485 1 -1 3
3890 1297 2 0.5242 4.798261522640482 11.591222964689031 1.755039420001111 1 -1 3
2585 862 2 0.5242 11.108112152726209 10.012314314014548 3.7384055491363255 1 -2 -2
2584 862 1 -1.0484 10.246465534136194 10.460706262674577 3.874160858698873 1 -2 -2
2586 862 2 0.5242 9.939692549015527 10.602299389914364 2.876532536567056 1 -2 -2
1166 389 2 0.5242 8.22136187214435 7.552010913201758 0.6223552289453166 -2 1 -1
1165 389 1 -1.0484 8.802428047820795 8.24937941368143 0.10494470253963782 -2 1 -1
2456 819 2 0.5242 10.194938483516498 12.508718175227262 4.670536909753986 3 2 0
2455 819 1 -1.0484 10.885751907086965 12.958948207933568 5.103605753285111 3 2 0
2457 819 2 0.5242 11.529127724665532 12.144332176384657 5.359925954362951 3 2 0
2089 697 1 -1.0484 15.380453677884033 6.4467588603514185 1.285624986142008 1 0 2
2091 697 2 0.5242 16.4236674417651 6.484231832577791 1.3885097581814414 1 0 2
539 180 2 0.5242 15.780162815128985 8.542839949444998 3.4514277911375606 1 0 1
538 180 1 -1.0484 15.282423372206079 8.941043295090003 2.7012369104473337 1 0 1
540 180 2 0.5242 14.380236477166974 8.629002686619627 3.1688420737797363 1 0 1
2090 697 2 0.5242 15.25061195973051 7.295643950971349 1.7444984529250447 1 0 2
381 127 2 0.5242 17.89568948896178 11.720268875740997 1.0564982397513973 1 0 2
4131 1377 2 0.5242 13.600535051320485 10.592384340841926 4.781461862424676 1 1 -1
4129 1377 1 -1.0484 13.022928112489048 11.0774821028833 4.109404405683039 1 1 -1
4130 1377 2 0.5242 13.662173980813712 11.063320092474866 3.338070641184902 1 1 -1
379 127 1 -1.0484 17.938347065187966 10.754657127051201 0.92721611543193 1 0 2
2643 881 2 0.5242 20.690561749847372 12.682299566207242 0.9321666667161281 0 4 -4
117 39 2 0.5242 18.1456472961904 9.213881603411492 4.19530555704265 -1 0 -2
2057 686 2 0.5242 18.25101712713061 11.130065404495301 5.647352289297413 -3 -1 -2
2056 686 1 -1.0484 17.903254794722635 10.835194463790447 4.771870471243615 -3 -1 -2
270 90 2 0.5242 16.12692944663581 8.978157123562408 36.76102464680304 -1 -2 2
268 90 1 -1.0484 16.490589534610987 9.392433604413322 35.973500521032975 -1 -2 2
269 90 2 0.5242 17.120381476294305 10.02257325651656 36.34167942219659 -1 -2 2
1266 422 2 0.5242 23.45877429021152 7.783771612832821 2.9260928219862286 -1 5 3
1264 422 1 -1.0484 23.095148870515263 7.293592053653793 3.7049316157246945 -1 5 3
2513 838 2 0.5242 19.808557591334324 7.820298144857677 3.492388851258043 -2 2 3
2514 838 2 0.5242 20.605860891097876 7.66339237959503 2.1814191211319796 -2 2 3
3064 1022 1 -1.0484 22.263224045558054 11.060385700744817 3.685739663755878 -1 -3 1
2066 689 2 0.5242 20.651034615221576 4.806866248851363 5.125250429196804 -3 0 -1
4306 1436 1 -1.0484 22.051476437475372 9.436295757613525 6.266251828922603 -2 -1 2
4308 1436 2 0.5242 23.120126797064543 9.388328455546379 6.391179794581975 -2 -1 2
4307 1436 2 0.5242 21.99711824995782 10.005526927995744 5.523592864722842 -2 -1 2
2519 840 2 0.5242 24.746385206261053 13.053109942262736 5.154185573596344 -1 1 3
2518 840 1 -1.0484 24.871320086511343 12.576300944093756 5.986836839116755 -1 1 3
1519 507 1 -1.0484 23.522453492829737 9.90107936096615 1.7722305218756778 3 1 -2
938 313 2 0.5242 21.91193917536312 9.401254416569408 1.133790139013572 2 -5 -1
1520 507 2 0.5242 22.794401363015627 10.245856670744722 2.5604129493173673 3 1 -2
3065 1022 2 0.5242 21.680736901467156 11.54055253220604 3.157748569988006 -1 -3 1
2058 686 2 0.5242 17.37021593512888 11.69544513497503 4.471453025020057 -3 -1 -2
2783 928 2 0.5242 22.365597701599786 6.710738626835322 5.9244242192746865 -1 0 -1
2784 928 2 0.5242 20.99531569325672 6.8648772958611435 6.342523196717463 -1 0 -1
2782 928 1 -1.0484 21.670601469087636 6.146551629907688 6.481333825376069 -1 0 -1
937 313 1 -1.0484 20.968545550415968 9.004543675333782 1.2325754832720839 2 -5 -1
939 313 2 0.5242 20.480136630579285 9.912378417885243 1.230465636257498 2 -5 -1
1265 422 2 0.5242 22.178856301047716 7.570715557031606 3.6068210820036555 -1 5 3
2641 881 1 -1.0484 20.94451989570538 11.80046938265946 1.1210310344747434 0 4 -4
3066 1022 2 0.5242 22.665534896947925 11.765721234289959 4.249903943761958 -1 -3 1
2520 840 2 0.5242 24.35428851587811 13.090907358966554 6.731210400183941 -1 1 3
2499 833 2 0.5242 27.27343831725971 7.512972919252562 0.9891132964792495 0 -3 2
2498 833 2 0.5242 26.473166665674132 8.003670877962186 2.1980756950731726 0 -3 2
2497 833 1 -1.0484 26.735435902532185 7.134915907378052 1.757857156235799 0 -3 2
941 314 2 0.5242 28.253814392502786 8.885588071761575 36.41317777182694 0 1 0
940 314 1 -1.0484 27.556163328764605 8.173385479399553 36.504122735217564 0 1 0
1521 507 2 0.5242 24.322566904969516 10.210536062970816 2.269259836062242 3 1 -2
3273 1091 2 0.5242 24.93577772756017 9.979560110583213 4.224516967253507 0 0 1
3112 1038 1 -1.0484 29.691316284653553 10.814117162736476 3.0022089700101313 1 0 0
942 314 2 0.5242 26.77442018055137 8.777949075039325 36.185978526644206 0 1 0
3272 1091 2 0.5242 26.238462503356313 10.288038233805878 3.459624198089136 0 0 1
3271 1091 1 -1.0484 25.622519080143963 9.637559924201229 3.542501040608002 0 0 1
532 178 1 -1.0484 27.233254168513284 11.817644772249647 2.896843735880074 -1 2 -2
533 178 2 0.5242 28.18646503990303 11.655061927079426 2.726878572410933 -1 2 -2
3281 1094 2 0.5242 24.483097902692847 5.890766975330011 3.841973236914656 -1 3 1
1037 346 2 0.5242 34.60087349690767 7.1786795337934155 2.8912407130210127 -5 -3 0
2918 973 2 0.5242 29.707682102598877 10.310622541056574 36.10755386979618 0 1 2
3456 1152 2 0.5242 32.08224935789022 5.947556009261296 4.2587953893306905 0 3 2
3454 1152 1 -1.0484 32.43974264516724 5.979420934865891 5.085595426681298 0 3 2
3455 1152 2 0.5242 33.268181707464336 6.5297614703722155 5.0034000270190315 0 3 2
3021 1007 2 0.5242 30.87986922537941 5.161084954062763 2.244844027842601 1 2 4
1036 346 1 -1.0484 34.43416701672865 7.17535238307594 1.8594264778673872 -5 -3 0
1038 346 2 0.5242 35.29705430471961 6.736805399904471 1.6110254708767797 -5 -3 0
1775 592 2 0.5242 31.02231003365333 7.395720486115579 2.4095065197860746 -1 1 -2
1774 592 1 -1.0484 30.647453284287405 8.105763446760136 2.945017175617874 -1 1 -2
1776 592 2 0.5242 31.469577901135974 8.766407668056681 2.8475568310398187 -1 1 -2
2917 973 1 -1.0484 29.239199131906197 10.22977545973951 35.274663652475994 0 1 2
2919 973 2 0.5242 29.789790801675753 10.837466845399053 34.672235501324295 0 1 2
306 102 2 0.5242 30.256942815208937 12.973045318954089 0.8780737431151363 1 -2 1
2692 898 1 -1.0484 34.30613557737955 8.764305225714358 36.5218837688232 2 4 2
2693 898 2 0.5242 33.34181672507161 8.618961554583775 36.43132941344001 2 4 2
2694 898 2 0.5242 34.50212541674192 7.926534227356364 0.26428471559571226 2 4 3
4044 1348 2 0.5242 33.85125059416353 10.380070113201517 0.9970114425959047 -1 3 0
1773 591 2 0.5242 33.45924176831717 9.813557335927122 4.269453482564699 -1 1 3
3114 1038 2 0.5242 29.670588632834438 9.787110273265041 2.677701056357247 1 0 0
1819 607 1 -1.0484 35.02392997804061 7.030124576276979 4.567500404857096 0 1 -2
1771 591 1 -1.0484 32.94284608823834 10.508975070057659 3.9259092539260294 -1 1 3
2780 927 2 0.5242 34.731297408020396 8.77544782738869 6.757795949837664 -2 4 -3
2779 927 1 -1.0484 34.46462346826506 9.644897879510516 6.303828368503724 -2 4 -3
3694 1232 1 -1.0484 36.8055313723052 6.424958806176008 1.0400461669214414 1 -2 -2
3545 1182 2 0.5242 35.505686045005845 9.657363363945118 35.67324462904077 0 1 1
2654 885 2 0.5242 34.679035774175276 13.513254788263609 4.6467863044605675 -1 2 2
1820 607 2 0.5242 35.387400523098705 6.057270896280267 4.811641021892921 0 1 -2
1821 607 2 0.5242 35.84633573049307 7.586298763893969 4.6175262918740065 0 1 -2
3183 1061 2 0.5242 36.87715102019219 10.272062930999684 4.624552626748213 2 -5 1
3960 1320 2 0.5242 36.79112839241935 13.728087728980856 5.603224107745661 -2 1 3
3958 1320 1 -1.0484 0.78132509110094 13.935599475140021 5.9760786453819685 -1 1 3
3959 1320 2 0.5242 1.0499560269127144 14.793656006520752 5.339486046474213 -1 1 3
3102 1034 2 0.5242 36.919649177949424 13.358893272867626 2.9004357122076088 1 0 2
2431 811 1 -1.0484 2.792615617384213 14.908227507865714 1.6018111654865361 -3 -1 0
290 97 2 0.5242 5.587411268674887 15.102682617936459 6.216641345005434 -3 -2 2
2432 811 2 0.5242 1.8870248553983733 14.631716434744463 1.4380925689945405 -3 -1 0
289 97 1 -1.0484 5.324076323954188 14.612691340026304 5.3689659247237005 -3 -2 2
1742 581 2 0.5242 3.8182293115924346 15.00684543451667 4.273611625139275 1 2 -1
1741 581 1 -1.0484 2.7595882434697008 15.169793332878367 4.350191577200404 1 2 -1
1743 581 2 0.5242 2.670533983275265 15.129095515453617 3.3824125889434837 1 2 -1
4154 1385 2 0.5242 4.34469087074791 16.814738025053565 6.3333265637010046 0 0 1
4153 1385 1 -1.0484 4.3475961997340935 16.73287326407786 7.259017961748596 0 0 1
3149 1050 2 0.5242 3.5338173771366166 17.498268732489354 0.630349871802434 -3 3 6
3150 1050 2 0.5242 4.3938097290303375 17.142630842468055 1.7865409437632107 -3 3 6
3148 1050 1 -1.0484 3.4168636930281244 17.31725223811231 1.5921957088966676 -3 3 6
2433 811 2 0.5242 2.8285432758495803 15.894973114384898 1.59304803248816 -3 -1 0
2753 918 2 0.5242 5.83192937024548 17.224164968467207 3.243814882877209 -1 -2 0
4373 1458 2 0.5242 5.564114168987103 13.838443652248944 2.965511228254048 -2 -3 0
4374 1458 2 0.5242 4.151981823999926 13.913302314672327 2.3036993087369306 -2 -3 0
4372 1458 1 -1.0484 4.7816239631068465 13.281763697588707 2.7530380831768637 -2 -3 0
1710 570 2 0.5242 36.681214493803964 20.801666957119828 4.700260141651701 -3 0 4
3119 1040 2 0.5242 5.3478369928462675 18.569507124972116 5.109307207432706 1 -3 2
1142 381 2 0.5242 10.748193092415171 13.677103857881024 2.3588595264328207 0 -2 3
291 97 2 0.5242 6.1813243928758395 14.386963840623649 4.939407762618416 -3 -2 2
2752 918 1 -1.0484 6.145541017160492 17.006023781305238 2.3349199495797395 -1 -2 0
2754 918 2 0.5242 6.419880562260023 16.0865512414351 2.5311644332734464 -1 -2 0
1597 533 1 -1.0484 8.748035010086284 14.394138657085765 1.2054603620479485 4 -3 0
1598 533 2 0.5242 9.661619092128214 14.362002508860103 0.6963240892658481 4 -3 0
1906 636 1 -1.0484 6.284265657291871 15.54328306892114 35.16386655492984 -1 6 -1
1908 636 2 0.5242 6.834348000603428 14.789544523362933 34.894501836533536 -1 6 -1
1907 636 2 0.5242 5.360201768472613 15.326170970735058 34.96645342507705 -1 6 -1
1599 533 2 0.5242 8.209606152298354 13.56844982853887 0.9108023466338683 4 -3 0
1343 448 2 0.5242 7.448793527753893 15.685028647790205 3.8578365312360106 0 1 5
1344 448 2 0.5242 7.7958452661309625 14.634232867589384 2.57511337720617 0 1 5
1342 448 1 -1.0484 7.2579560315919265 14.746809905102644 3.3859822322477138 0 1 5
3267 1089 2 0.5242 6.895666735113444 17.787374689284775 0.9363822410259386 -2 2 1
3776 1259 2 0.5242 2.848544025688043 14.892374479282216 34.511328941875675 0 3 -2
3775 1259 1 -1.0484 3.791052576197057 14.94892114999355 34.36613095598321 0 3 -2
3777 1259 2 0.5242 3.861354718262267 15.619541075161719 33.57775045795124 0 3 -2
3265 1089 1 -1.0484 7.296796672542141 17.548911454444152 36.85556046259518 -2 2 0
3266 1089 2 0.5242 6.817879492159466 16.774121664077896 36.556756031945326 -2 2 0
1141 381 1 -1.0484 11.567626680723219 13.129950603075953 1.9761004888647813 0 -2 3
380 127 2 0.5242 17.73784540387976 10.452636774780732 1.863327962704054 1 0 2
2119 707 1 -1.0484 14.818815994004218 18.109972183438238 5.372795613415184 -2 3 0
3728 1243 2 0.5242 13.867591661544623 15.796959204984041 3.291346767823435 1 2 5
3727 1243 1 -1.0484 13.672442579847182 15.457352551624451 2.383029683766193 1 2 5
3729 1243 2 0.5242 13.038136313043106 14.655115368388154 2.3991216438194334 1 2 5
2121 707 2 0.5242 14.844278425689737 17.092530538328894 5.195439107767992 -2 3 0
1995 665 2 0.5242 15.797845560634613 13.274508565240543 3.9571894178028595 0 3 0
1993 665 1 -1.0484 16.69141809805904 13.157788374796574 3.9799959539910548 0 3 0
1994 665 2 0.5242 17.02454182033504 14.10221248228166 3.8672769354496213 0 3 0
1143 381 2 0.5242 11.797068273080342 12.60538293563689 2.656117442441842 0 -2 3
1430 477 2 0.5242 18.21733675999852 16.09722558915171 3.661385224451896 0 0 4
637 213 1 -1.0484 17.547671384112217 16.896312939741208 6.578049207423991 5 4 -1
639 213 2 0.5242 18.16903089302471 16.478756626636095 7.244391133915898 5 4 -1
638 213 2 0.5242 17.786636560290003 16.26678586579733 5.855079869091844 5 4 -1
957 319 2 0.5242 13.296548013516258 12.556597883031037 35.7192297580428 -2 3 -1
783 261 2 0.5242 13.392799442558385 15.823375275949218 36.37087164945511 1 -2 -2
955 319 1 -1.0484 12.51342185743908 12.137484883852906 36.05771666895431 -2 3 -1
4151 1384 2 0.5242 24.819176500473606 13.762666216750945 2.7998376113926704 2 -5 -1
4150 1384 1 -1.0484 24.682260479585047 14.237674267283127 3.6982237376102645 2 -5 -1
1429 477 1 -1.0484 18.315686929777204 15.517828475095762 4.534007725397732 0 0 4
3743 1248 2 0.5242 21.858477516421917 15.228724768857045 4.133685896160929 -1 -2 0
3742 1248 1 -1.0484 20.929719781909498 14.884213721315463 4.294094924707888 -1 -2 0
605 202 2 0.5242 24.296829555877242 16.90370352103016 6.748196925842657 2 4 2
3465 1155 2 0.5242 20.90611561831469 13.73539000631814 7.202255969646261 -1 3 2
2829 943 2 0.5242 24.085892181993543 17.389629776912347 2.9658458702541752 1 1 2
1431 477 2 0.5242 19.233419080090407 15.175278461941385 4.36705302771306 0 0 4
4225 1409 1 -1.0484 18.237288753249405 17.14257854999848 2.2421568678441486 0 2 0
4227 1409 2 0.5242 18.12806000863252 16.762973003099233 1.3316898487683448 0 2 0
514 172 1 -1.0484 23.743166070932045 17.33227331047561 1.0650486451195904 0 -5 1
516 172 2 0.5242 23.26498640772865 16.755107374282485 0.3292765622120746 0 -5 1
515 172 2 0.5242 24.074808022454953 18.111201069926253 0.543158074209269 0 -5 1
3744 1248 2 0.5242 21.071332986801455 14.211108096646878 5.051125271577483 -1 -2 0
2189 730 2 0.5242 20.04725341592503 16.138894791033607 1.3986030606776352 1 -2 0
4226 1409 2 0.5242 18.486010763095262 18.132354824610353 2.059194486000957 0 2 0
4152 1384 2 0.5242 24.51625307393734 15.237002273366015 3.430540628714292 2 -5 -1
606 202 2 0.5242 22.82839483819647 17.240040484546718 6.597375290000049 2 4 2
604 202 1 -1.0484 23.39087994459735 16.536610394796785 6.9939828619935795 2 4 2
2827 943 1 -1.0484 24.070883867316184 16.84614266819236 3.9048919942510047 1 1 2
629 210 2 0.5242 25.688675805657972 16.414608202159965 2.753389781710786 3 -1 2
3871 1291 1 -1.0484 25.772132288909276 13.432909752858759 1.3214396573879128 3 -2 -2
3872 1291 2 0.5242 26.450597053681978 13.044928624219176 1.8914901260433956 3 -2 -2
3873 1291 2 0.5242 26.095750739234067 14.344883789171094 0.9983237829109953 3 -2 -2
534 178 2 0.5242 27.370326073725344 12.325945560036823 3.8988900336885535 -1 2 -2
4484 1495 2 0.5242 29.716698322539635 15.170550467500355 3.0321177934269032 -2 4 -1
4485 1495 2 0.5242 29.77996725822123 14.26758889149352 4.3290533353564955 -2 4 -1
4483 1495 1 -1.0484 29.351879274614717 15.059111552728695 3.929664550599258 -2 4 -1
3970 1324 1 -1.0484 32.713108901527875 14.089081142166695 5.629011678427047 -2 -3 1
2828 943 2 0.5242 23.65486298574656 17.452544362917557 4.580515266788478 1 1 2
630 210 2 0.5242 27.188135057034696 16.403783477203895 3.0173548164490835 3 -1 2
628 210 1 -1.0484 26.516422518991728 16.406632975338205 2.3279839336358052 3 -1 2
4084 1362 1 -1.0484 29.887421956105566 13.096528661317825 7.310151382289535 -2 -1 3
3516 1172 2 0.5242 27.94953268051959 17.94644442539894 7.5876096906995265 -1 -1 -2
4086 1362 2 0.5242 29.03321832539176 13.25735700919524 6.953717975511917 -2 -1 3
548 183 2 0.5242 28.77674828082289 15.182503174821496 0.4059433852152744 2 -1 2
3300 1100 2 0.5242 33.23365697225735 16.905834681126308 2.10705295847562 -2 0 -2
2348 783 2 0.5242 31.243163499081824 15.325852895026085 1.64758577325324 1 1 0
3298 1100 1 -1.0484 33.09789205122841 16.137953218853163 2.6814853777268866 -2 0 -2
2347 783 1 -1.0484 30.759236141739635 14.777673734067653 0.9588115773069311 1 1 0
3460 1154 1 -1.0484 0.3775423951600909 16.954197572895268 4.539760034593903 -2 1 3
784 262 1 -1.0484 31.73986362754654 13.440150447364553 3.3913024388095243 -4 2 0
786 262 2 0.5242 31.372729430855937 13.246747706599578 2.5087282850236226 -4 2 0
785 262 2 0.5242 31.906385168210495 12.583280762215471 3.670521989053041 -4 2 0
3299 1100 2 0.5242 33.286510517584404 16.56260096187688 3.5658512812276006 -2 0 -2
3461 1154 2 0.5242 0.07435326773919718 17.869345698914596 4.659852509051433 -2 1 3
2349 783 2 0.5242 31.083709092452995 15.093134821993425 36.89963938775896 1 1 -1
3733 1245 1 -1.0484 34.537903545972384 14.554530942234809 0.9243401025596231 -1 0 -1
3971 1324 2 0.5242 33.07338664527629 14.954074845407629 5.760617816454427 -2 -3 1
3972 1324 2 0.5242 32.435420898305 13.919542983624797 4.624637973588056 -2 -3 1
3734 1245 2 0.5242 34.0332541962579 14.939059857474142 1.6774683571607616 -1 0 -1
4043 1348 2 0.5242 33.49039510553442 11.88926992339108 0.6769354011312123 -1 3 0
363 121 2 0.5242 35.54663973707734 15.583506996648493 36.422890047650455 2 -3 0
361 121 1 -1.0484 36.252332264422535 15.7237066079954 35.740815366262325 2 -3 0
1772 591 2 0.5242 33.33792976824782 10.819859591382523 3.0705990494949598 -1 1 3
590 197 2 0.5242 35.111717986619325 16.457466792451292 5.108340496013854 -1 -2 1
589 197 1 -1.0484 34.28204225020181 16.395581707396378 5.5487271986479145 -1 -2 1
591 197 2 0.5242 34.3170146032888 17.039735962930553 6.265625509974421 -1 -2 1
3462 1154 2 0.5242 1.375271485939377 16.982811320846984 4.688296447142546 -2 1 3
4042 1348 1 -1.0484 33.97489505844244 11.250079324769244 1.2852790152713396 -1 3 0
1709 570 2 0.5242 36.35007139607238 20.006621308664485 3.47194486172335 -3 0 4
1708 570 1 -1.0484 0.06513097608157636 19.973481808128252 4.238665780739394 -2 0 4