LAMMPS data file via write_data, version 23 Jun 2022, timestep = 2000822

4500 atoms
2 atom types
3000 bonds
1 bond types
1500 angles
1 angle types

0.7572069402754344 36.229793059726106 xlo xhi
0.7493734130121794 36.22962658698495 ylo yhi
0.7248936403216533 36.22910635967102 zlo zhi

Masses

1 15.9994
2 1.00794

Pair Coeffs # lj/cut/tip4p/long/gpu

1 0.16275 3.16435
2 0 0

Bond Coeffs # harmonic

1 250 0.9572

Angle Coeffs # harmonic

1 60 104.52

Atoms # full

2954 985 2 0.5242 6.415617593843811 2.862804457591912 3.3844607782962988 0 0 0
2604 868 2 0.5242 4.352398300980671 4.196886449732554 2.562346644435276 1 0 0
2953 985 1 -1.0484 5.352755136291458 3.0646043508912597 3.5154059310845795 0 0 0
1184 395 2 0.5242 5.518908755856573 3.70824722313938 5.045241320269038 1 0 1
2955 985 2 0.5242 5.07905754622328 2.129320654901144 3.230114316273866 0 0 0
2602 868 1 -1.0484 3.658670743814137 4.58485930944204 1.95881332874301 1 0 0
2603 868 2 0.5242 2.7816970489865858 4.439063793833607 2.4819517784967395 1 0 0
1185 395 2 0.5242 4.292508090362225 4.408646474832144 5.66669174587053 1 0 1
1183 395 1 -1.0484 5.224719405048275 4.135321216572345 5.958010256014184 1 0 1
2986 996 1 -1.0484 2.824932157989726 4.9369279833741455 5.703454053907113 0 0 0
1504 502 1 -1.0484 1.2474626544906289 4.7025059948685435 3.314566407796378 1 0 1
591 197 2 0.5242 1.8099805766803987 6.385210854488305 5.285886783607349 1 0 0
3207 1069 2 0.5242 0.9875586766981814 1.190283043314382 4.30655306545096 0 0 0
1286 429 2 0.5242 4.998215782500406 2.7658614591144266 6.99713598588377 0 1 1
2988 996 2 0.5242 2.3096646835131436 4.701531800398648 4.89155923702155 0 0 0
2987 996 2 0.5242 2.3142674033346164 4.450348045182402 6.466732795670496 0 0 0
2624 875 2 0.5242 5.461932187750174 5.215484040445414 7.229805362745886 1 0 1
561 187 2 0.5242 3.456293935536842 6.441048124280238 1.7007202681274711 1 0 1
1827 609 2 0.5242 0.7732436101983211 1.3178356087125636 2.5896047336070214 0 1 0
2266 756 1 -1.0484 5.220871459718343 35.98361041781516 2.6759960704992007 0 0 1
2267 756 2 0.5242 5.0230222281753285 0.8573941107349299 1.7524895838553012 0 1 1
1892 631 2 0.5242 8.054696175588939 0.7712562790590235 2.9850810002884343 0 0 1
3600 1200 2 0.5242 10.34228289978152 4.5672861995646326 2.642927130309826 1 0 0
3598 1200 1 -1.0484 10.201137160815003 3.7019553267424095 2.2277129204771553 1 0 0
10 4 1 -1.0484 11.517329767580351 6.103412844769571 3.2085106636538963 0 0 0
4008 1336 2 0.5242 8.32314440361456 2.802790115193334 4.430131328638895 0 1 0
4007 1336 2 0.5242 8.786885809663634 2.678546284171357 2.885942727276456 0 1 0
4006 1336 1 -1.0484 8.000556597214159 2.445163041573228 3.4218844307006635 0 1 0
3599 1200 2 0.5242 11.142766488496909 3.3442224306409742 2.12684364783137 1 0 0
4161 1387 2 0.5242 12.223799266239036 1.044059185621713 1.8869942543632165 0 1 0
1864 622 1 -1.0484 8.633071421266845 3.374976173113901 5.779556028982901 1 0 0
1865 622 2 0.5242 9.57239355679149 3.370131909444611 6.086765483636967 1 0 0
2474 825 2 0.5242 11.763052571430656 4.286522347276129 6.1271423676253685 0 0 0
2381 794 2 0.5242 7.706074226046157 1.969278272655814 7.331321032660572 0 1 0
1866 622 2 0.5242 8.256569936276271 4.316214425584572 5.904739557403765 1 0 0
2769 923 2 0.5242 7.373161732606357 5.971073719271926 7.339989928097698 1 0 0
2767 923 1 -1.0484 8.17859982108959 5.939671792392699 6.6943595254275285 1 0 0
3938 1313 2 0.5242 9.967046157129463 3.6318539427662064 36.06626113190808 0 0 0
11 4 2 0.5242 12.019522361699055 5.588266961800103 3.9261563928549 0 0 0
3706 1236 1 -1.0484 12.60723181911513 2.5282179730441867 1.6995915904622652 0 0 1
12 4 2 0.5242 12.280048016819736 6.341572636688325 2.6294411971933287 0 0 0
3707 1236 2 0.5242 13.406447709344002 3.0712939079951624 1.9898633017170535 0 0 1
987 329 2 0.5242 13.368880947274754 1.1599954191193347 4.092541525073329 1 1 0
1011 337 2 0.5242 15.746546331243097 4.0847317496335664 2.4965104886865794 0 0 0
1009 337 1 -1.0484 15.059609049065807 3.7786498975609 1.826068549060139 0 0 0
1492 498 1 -1.0484 16.325262283552235 1.7071725737522243 3.8083248216071315 0 0 0
1330 444 1 -1.0484 16.36791214701076 5.3531300302325135 3.746997464246205 1 1 1
1010 337 2 0.5242 15.597866367436684 3.977763528962292 0.9778313603771832 0 0 0
1331 444 2 0.5242 17.13591404370995 4.980788398261397 4.1423514669093935 1 1 1
4080 1360 2 0.5242 14.478013817286834 5.531770610699501 2.094213065661184 0 1 1
1332 444 2 0.5242 15.769396344398832 5.382742917950607 4.522986989080874 1 1 1
670 224 1 -1.0484 12.788657926899772 4.2679619665773725 4.671063884123338 0 0 0
2926 976 1 -1.0484 15.022756977214264 5.323611467756444 6.091822937394175 1 0 0
2927 976 2 0.5242 14.659527751913036 6.221289104452764 6.204368764145208 1 0 0
672 224 2 0.5242 13.135118563960246 3.2842958170238266 4.694836794145241 0 0 0
1493 498 2 0.5242 16.352265445283322 1.3212562725312447 2.884485252554186 0 0 0
671 224 2 0.5242 13.603844554649351 4.682486960312784 5.1036696001345065 0 0 0
985 329 1 -1.0484 13.83391167341514 1.893391084670634 4.63234476962649 1 1 0
4046 1349 2 0.5242 17.847219426767698 2.908966764049985 3.9172530309612035 -1 1 0
4045 1349 1 -1.0484 18.602497408911802 3.488071676280934 4.109174646322128 -1 1 0
1494 498 2 0.5242 15.34030011867046 1.8063095613658673 3.8705663473030802 0 0 0
908 303 2 0.5242 17.313760130137883 6.669225844658802 2.8204655763108892 0 0 0
2510 837 2 0.5242 13.19204583943884 6.52569154861741 35.794744284271935 1 0 0
3012 1004 2 0.5242 19.58824447928351 4.901069515764949 5.430868620984304 0 0 1
975 325 2 0.5242 22.55885080723622 4.055170798184783 5.241171366180857 0 0 0
4100 1367 2 0.5242 23.406158478386896 3.61464173608959 3.3150469973327947 0 0 0
4101 1367 2 0.5242 22.806123327518765 2.3218254442129016 4.090693116018618 0 0 0
976 326 1 -1.0484 19.814434367909822 2.224846688210847 2.1694634889245004 0 0 0
4099 1367 1 -1.0484 22.61671731265388 3.3296441133540853 3.7975593478444436 0 0 0
977 326 2 0.5242 20.44955078720727 1.6262964982900274 2.578407009185734 0 0 0
973 325 1 -1.0484 22.68292917300385 4.423101601758916 6.220533423957221 0 0 0
4088 1363 2 0.5242 24.173621414367577 4.871371317760888 5.802538580450919 0 1 0
978 326 2 0.5242 20.265907116587172 2.4079508065578015 1.3019006502750705 0 0 0
4047 1349 2 0.5242 19.22032594362911 3.3218432726369933 3.4036454596329295 -1 1 0
1040 347 2 0.5242 25.41532021802764 2.8938950530952576 1.572046673393642 0 0 1
4087 1363 1 -1.0484 25.177363180608364 5.125124444684433 5.608536181181224 0 1 0
4253 1418 2 0.5242 20.90534290935939 6.5934881705186905 5.615049869394069 0 0 1
1643 548 2 0.5242 24.26809013110149 6.707756084236163 5.069830526115741 0 0 0
3011 1004 2 0.5242 20.97057004881267 4.69436513474257 6.1839124351422585 0 0 1
3010 1004 1 -1.0484 20.160940529727206 5.288124287385224 6.164477039816226 0 0 1
3513 1171 2 0.5242 25.230772214707287 4.444318533473127 4.040148413522813 0 0 1
92 31 2 0.5242 26.349800501063896 1.661054948631313 5.393085368803 -1 0 0
93 31 2 0.5242 26.07443959227058 2.682122159251529 4.133113459600885 -1 0 0
91 31 1 -1.0484 25.989591461589836 1.7492642550690822 4.397013644523396 -1 0 0
3511 1171 1 -1.0484 25.346724967800473 3.9913736688746266 3.1716853993134753 0 0 1
3512 1171 2 0.5242 26.049048039551746 4.629576948346376 2.8223462019539536 0 0 1
3178 1060 1 -1.0484 29.884078686139826 3.238941099227467 3.9685863195777467 0 0 0
3179 1060 2 0.5242 29.570995721699983 2.294439354648481 3.893752884543442 0 0 0
1459 487 1 -1.0484 30.141832718683723 3.897600470620504 1.4899170150330625 0 0 1
3180 1060 2 0.5242 29.915262238146028 3.5879740177071464 3.03656780432141 0 0 0
1460 487 2 0.5242 30.240110981855715 4.836209072568842 1.4735936996339207 0 0 1
794 265 2 0.5242 27.736170660539983 0.8653917995117912 3.7353934876160655 0 1 1
996 332 2 0.5242 28.76560884617722 4.08101854552775 5.31166557775286 0 1 0
793 265 1 -1.0484 28.727458764921515 0.7830346542650528 3.8139921300531405 0 1 1
994 332 1 -1.0484 28.442266560043745 4.1206106635630615 6.227100927889257 0 1 0
1039 347 1 -1.0484 25.69119182747859 2.1649548358613835 0.9299277553066055 0 0 1
795 265 2 0.5242 28.779410562826627 35.70062527961649 4.740943699341541 0 0 1
3983 1328 2 0.5242 25.815018613245954 35.82672374746998 1.8673397681060084 0 0 0
995 332 2 0.5242 28.178755009846025 3.1439107416136873 6.367893671705078 0 1 0
1505 502 2 0.5242 1.1944975797773065 3.767912903582194 3.745370545031288 1 0 1
73 25 1 -1.0484 30.416808506354663 6.595945725705187 1.4865438377232554 -1 0 0
1461 487 2 0.5242 31.131691485775516 3.6474986057489405 1.5442032532824557 0 0 1
3205 1069 1 -1.0484 36.04995092307432 2.067297199360505 3.9119018196833646 -1 0 0
234 78 2 0.5242 30.900962796213854 3.370871658173961 5.356562615705937 0 1 0
1506 502 2 0.5242 36.014754361910335 4.7318707103689785 2.607546991963085 0 0 1
232 78 1 -1.0484 31.81266198121822 3.403032083924465 5.778413641291532 0 1 0
233 78 2 0.5242 32.06094242092719 4.371116369391117 5.595363598377848 0 1 0
1219 407 1 -1.0484 32.78289114211864 3.413658988163537 2.0561802212111355 -1 0 1
3206 1069 2 0.5242 35.01647652746165 1.8886029880892345 4.060847696927921 -1 0 0
1194 398 2 0.5242 32.829539843530696 2.553312737114463 4.682072935793718 0 0 0
1192 398 1 -1.0484 33.38146184525495 1.8817636843659546 4.133811985497867 0 0 0
1221 407 2 0.5242 33.30021200004505 3.0178638529562924 2.7996706056291965 -1 0 1
520 174 1 -1.0484 32.14622164108074 6.191859716020768 5.799672654758285 -1 0 0
1193 398 2 0.5242 33.033529274795725 1.0481992352212217 4.489698299307985 0 0 0
1220 407 2 0.5242 33.41758251570438 4.143140393529342 1.8804093029167666 -1 0 1
4107 1369 2 0.5242 34.60805529096068 6.243977712520904 1.5855249733422516 0 0 1
4105 1369 1 -1.0484 34.59868277291501 5.221602254955764 1.6179572596908232 0 0 1
522 174 2 0.5242 31.624334752860793 6.671033390891206 6.525822463859661 -1 0 0
3084 1028 2 0.5242 33.54308877048315 6.445600341519432 6.495344666889982 0 0 0
521 174 2 0.5242 32.00159336430798 6.742874086263952 4.999043586124607 -1 0 0
3912 1304 2 0.5242 32.63695114496859 0.9078080751439385 1.8388843915577113 0 0 0
590 197 2 0.5242 1.6740487778766118 7.8602432866356375 5.856405185095981 1 0 0
589 197 1 -1.0484 1.1533874086462677 7.128414129843267 5.334203156113983 1 0 0
936 312 2 0.5242 5.741563396383803 7.895609118168774 2.0953556472237116 1 1 1
560 187 2 0.5242 2.9784526747389486 7.800827155333918 2.4369443438026703 1 0 1
559 187 1 -1.0484 3.781706255328458 7.409591097785422 1.8399951085524315 1 0 1
3641 1214 2 0.5242 2.0430197298419066 11.896012650474216 6.01910787825863 1 0 0
934 312 1 -1.0484 6.545942289188635 8.194892459151603 2.6119266460655033 1 1 1
935 312 2 0.5242 7.2589100420901875 7.681072723581031 2.0851737808060804 1 1 1
1135 379 1 -1.0484 1.4030868099129372 8.52743823441119 2.9850083857212995 0 1 0
3640 1214 1 -1.0484 1.7830036790530048 10.973653102432554 6.517850388067966 1 0 0
3642 1214 2 0.5242 0.8038100513366686 10.889563993617562 6.268500528582463 1 0 0
367 123 1 -1.0484 5.074175500454387 8.54511776470131 6.4185333678607845 1 1 0
368 123 2 0.5242 4.059101485978994 8.688021692078676 6.454669316572424 1 1 0
369 123 2 0.5242 5.518243271633792 9.419168915816158 6.837077586250883 1 1 0
1347 449 2 0.5242 2.9738160810808933 8.427552191305397 36.19080686504295 1 0 -1
1137 379 2 0.5242 1.1941263353654543 7.977546187595016 3.824681659129391 0 1 0
991 331 1 -1.0484 0.7763988798042072 13.226012649621756 3.116458902178859 0 0 0
993 331 2 0.5242 1.194366463845853 13.270913107971838 2.2762070719397958 0 0 0
295 99 1 -1.0484 5.082651705441811 12.32964625346524 2.1014231113785673 0 0 0
3775 1259 1 -1.0484 2.4591498093250936 8.53391791875032 7.017667242356083 1 0 0
3776 1259 2 0.5242 2.115005823318349 9.536743142082933 6.9604949385199655 1 0 0
3648 1216 2 0.5242 11.501296547962713 7.363945267184194 3.9791312040190556 0 1 1
1047 349 2 0.5242 6.388207137365675 8.102307878426629 5.359670831280933 0 0 0
297 99 2 0.5242 5.763785723821329 11.742880851025452 2.6890314635106543 0 0 0
3646 1216 1 -1.0484 11.76428275456172 8.187505453016739 4.553749929207836 0 1 1
668 223 2 0.5242 10.273024310009225 8.853949791516 5.229121415586643 0 0 1
1046 349 2 0.5242 7.169053426809865 8.101427733457859 3.9271773759154 0 0 0
1045 349 1 -1.0484 7.378871883328741 8.13009533085603 4.953285085681708 0 0 0
3739 1247 1 -1.0484 7.2152080548038295 10.911875082337904 3.358414716942442 1 1 1
3741 1247 2 0.5242 6.929721850457917 9.968781852297603 3.4462904637896097 1 1 1
3740 1247 2 0.5242 8.011808855685683 10.853945525029225 2.7656977604193513 1 1 1
3514 1172 1 -1.0484 10.690392776243366 8.944243423245776 0.8266363813179692 0 0 1
3516 1172 2 0.5242 10.037246469760825 9.667376616834098 1.157013084551389 0 0 1
3427 1143 1 -1.0484 9.086266052122943 10.759638271539764 1.595389329677012 0 0 0
3902 1301 2 0.5242 9.309195133560326 12.46061151447091 5.555384093244372 0 0 0
3903 1301 2 0.5242 8.215685018276911 12.239137375191378 4.544392376816015 0 0 0
669 223 2 0.5242 8.79349160391545 9.04924717820086 5.43081015736736 0 0 1
667 223 1 -1.0484 9.610130552630268 9.454893348867415 5.721818893894947 0 0 1
3428 1143 2 0.5242 9.574084995992434 11.631465068474665 1.385984476323536 0 0 0
2234 745 2 0.5242 12.069454795932455 9.289463728141305 1.8012400303717542 1 0 0
4449 1483 2 0.5242 11.084894573807718 13.177334080487098 1.70099793869481 0 0 1
3647 1216 2 0.5242 12.387826420474038 8.736770898346517 3.9512399118225576 0 1 1
2643 881 2 0.5242 10.593575281795951 10.672815633590583 6.001449366264026 1 1 0
2768 923 2 0.5242 7.971359291632884 6.80657006320976 6.175047814005633 1 0 0
4447 1483 1 -1.0484 10.421210473293511 13.286277068596492 1.0379621345079109 0 0 1
3515 1172 2 0.5242 10.392355512923697 8.716054268834698 35.391352596715286 0 0 0
4078 1360 1 -1.0484 14.007078448638456 6.37390727525143 1.8312880299966439 0 1 1
4079 1360 2 0.5242 14.6936790264588 7.086503125779708 2.0567983629781343 0 1 1
3272 1091 2 0.5242 12.890729034635598 7.539230152209647 6.374140884482813 0 0 0
1017 339 2 0.5242 12.684431432039744 11.29209526130597 2.618377310673892 0 0 1
1015 339 1 -1.0484 12.755936469718385 12.278677383794419 2.736181182106822 0 0 1
873 291 2 0.5242 12.632806549175537 11.801974854912878 5.759698526588209 -1 0 1
2233 745 1 -1.0484 12.815697176399752 9.545149249845348 2.448940238653551 1 0 0
3273 1091 2 0.5242 14.049756504317552 8.53900235032301 5.996570487942015 0 0 0
58 20 1 -1.0484 15.430438542261978 8.579090441146183 2.4081494953649996 0 1 1
2235 745 2 0.5242 13.626879766694833 9.200034568468565 2.072218860702435 1 0 0
60 20 2 0.5242 16.485760855268218 8.452335709856943 2.1651167031826883 0 1 1
1 1 1 -1.0484 14.848342794267435 9.549487087859395 5.036112155643373 0 0 0
2 1 2 0.5242 14.94808353249908 9.280804905481208 4.107107835610954 0 0 0
2797 933 1 -1.0484 17.469014627649976 10.206827132735892 5.770147297219384 0 0 0
3 1 2 0.5242 14.471916805229135 10.475739400129418 4.9164837492290925 0 0 0
2799 933 2 0.5242 16.548248849963063 9.948486210113645 5.470416007390064 0 0 0
1722 574 2 0.5242 17.295191262291297 12.17026466219606 5.2320895462019745 0 0 0
3575 1192 2 0.5242 15.676656941502232 11.487398107959443 1.4579791513391962 0 0 0
59 20 2 0.5242 15.338433889965417 9.31878798019899 1.7348050292539017 0 1 1
871 291 1 -1.0484 13.607287342386186 12.035444763185774 5.6063360529980475 -1 0 1
1016 339 2 0.5242 12.725994099459493 12.397327827557245 3.754431961865807 0 0 1
3271 1091 1 -1.0484 13.841980716830111 7.698676838073821 6.627534778534427 0 0 0
907 303 1 -1.0484 17.887354886831435 7.350555879252984 2.3992641614783827 0 0 0
909 303 2 0.5242 18.30401619642533 7.859096824415249 3.2327901357698163 0 0 0
2798 933 2 0.5242 18.128324554555437 9.566943576764436 5.255100809406809 0 0 0
1516 506 1 -1.0484 18.69852422751632 10.871026757507922 0.9422885935522443 0 0 0
1642 548 1 -1.0484 23.848190874425388 7.259315967935366 4.34360529570014 0 0 0
4254 1418 2 0.5242 22.19931450215607 7.325800155254667 4.897909525334344 0 0 1
4252 1418 1 -1.0484 21.243265991086368 7.49143602900834 5.255056129814846 0 0 1
3298 1100 1 -1.0484 19.156983728621157 8.737208342825479 4.3490420092800885 0 0 0
3300 1100 2 0.5242 19.97481721333456 8.229871882602685 4.653262541209505 0 0 0
3299 1100 2 0.5242 19.561672155715048 9.611217132776572 4.017083089736143 0 0 0
372 124 2 0.5242 21.003551899780106 10.772620188941715 2.632892416326878 -1 0 0
370 124 1 -1.0484 20.138958152891135 11.054712719820056 3.197938308097286 -1 0 0
371 124 2 0.5242 20.300320878378574 11.991870294743302 3.476345994998313 -1 0 0
2728 910 1 -1.0484 22.333475710697872 10.476616174013799 1.7457802553182917 0 0 0
3965 1322 2 0.5242 23.121894336403 7.210139791723067 1.4719116947977864 0 0 0
2730 910 2 0.5242 22.65415668624714 9.501647844553768 1.6847139051366757 0 0 0
1644 548 2 0.5242 24.0681140858503 8.201042412357708 4.659805986109394 0 0 0
3966 1322 2 0.5242 23.774941659218047 7.692455675103791 2.8666352111045734 0 0 0
3964 1322 1 -1.0484 23.696063795132588 8.000547979314788 1.905844160635679 0 0 0
1142 381 2 0.5242 23.558469025101658 11.545576129575645 2.6264933579434073 0 0 1
772 258 1 -1.0484 24.50505851458194 9.56856547094932 5.448067353331387 0 1 0
1517 506 2 0.5242 19.325153157035498 10.895395514866982 1.783196996898349 0 0 0
2729 910 2 0.5242 22.36630553375115 10.740212576245018 0.8414529272881026 0 0 0
1141 381 1 -1.0484 24.212364446467863 12.252854629226226 2.715257460509138 0 0 1
1518 506 2 0.5242 18.907558485776356 11.79835421817876 35.97880775619903 0 0 -1
4409 1470 2 0.5242 18.92232744534904 7.03659023081548 0.9280325791713953 0 0 1
3871 1291 1 -1.0484 26.398881845423222 6.665980651292149 1.4877511677489947 -1 0 0
3986 1329 2 0.5242 24.503060474318918 11.481906837577728 5.706224235843409 0 0 0
3985 1329 1 -1.0484 24.480033757971587 12.51368115644466 5.58805562405684 0 0 0
3873 1291 2 0.5242 27.021684589521776 7.3075155221972885 2.03581672703521 -1 0 0
3872 1291 2 0.5242 25.599624067728357 7.099127499136942 1.6744944403973985 -1 0 0
2553 851 2 0.5242 28.737815783685274 8.318924306947222 3.312112694597261 0 0 0
1823 608 2 0.5242 29.66947173459861 9.601051744431041 5.103025912617554 0 1 0
1824 608 2 0.5242 29.29403945738834 8.072265856561293 5.330138466043724 0 1 0
1822 608 1 -1.0484 29.748776573543452 8.688254081205294 4.641316282709928 0 1 0
2551 851 1 -1.0484 28.5081018624607 7.8647186234837845 2.4653011198231956 0 0 0
2552 851 2 0.5242 29.323931226524014 7.30807695383779 2.221665579328816 0 0 0
3294 1098 2 0.5242 27.315823041331747 11.469081586417655 1.6972744039436702 0 0 0
2760 920 2 0.5242 27.86350310246269 9.268095467233719 1.5101642312738468 -1 0 1
2532 844 2 0.5242 30.66579096011954 12.149446155268798 1.7327017614411115 0 0 0
2758 920 1 -1.0484 27.832773218093067 10.125350100392057 1.013685118977626 -1 0 1
2980 994 1 -1.0484 30.340731530509977 10.871471533778097 6.087216050732387 0 0 0
3077 1026 2 0.5242 29.72019487552066 13.061674062870217 2.9795398037792884 0 0 0
1143 381 2 0.5242 24.098914666658942 12.535092801789427 3.687365797321325 0 0 1
75 25 2 0.5242 31.091659344316028 7.090399871124477 2.0588712881516784 -1 0 0
1136 379 2 0.5242 36.19805313112559 8.236506149987438 2.315465144565927 -1 1 0
2981 994 2 0.5242 31.10296170635941 11.41955532345214 5.7805314436231985 0 0 0
1559 520 2 0.5242 31.062538758700356 8.247344906536409 4.004124837642655 0 0 1
992 331 2 0.5242 35.94880125994837 12.193407199465952 3.159817247723272 -1 0 0
4289 1430 2 0.5242 35.6117872945494 9.971734218045098 3.068032476214391 0 0 0
1558 520 1 -1.0484 31.90400721661048 7.866589179863397 3.510279011584353 0 0 1
1560 520 2 0.5242 32.28110302372488 8.775629960237321 3.187941595790438 0 0 1
2803 935 1 -1.0484 34.5225144422036 10.653318879659615 5.827598447001542 -1 1 0
4288 1430 1 -1.0484 35.23404681151658 10.885575252954693 3.2486556957856965 0 0 0
2804 935 2 0.5242 34.8408644893299 10.498618210882679 4.915177823503036 -1 1 0
4290 1430 2 0.5242 34.22524028480318 10.732267156929977 3.1812889457782574 0 0 0
1746 582 2 0.5242 31.902385538980777 11.047220251161361 2.8950781534851835 0 0 0
1744 582 1 -1.0484 32.7422110864765 10.43660551273474 2.672393481248223 0 0 0
1745 582 2 0.5242 32.81961065914096 10.602610632361003 1.659101905017288 0 0 0
2805 935 2 0.5242 33.898671379978765 11.403997615750217 5.585006148992904 -1 1 0
3628 1210 1 -1.0484 34.96682164696098 8.145255233917812 1.1896551084723106 0 0 0
2530 844 1 -1.0484 31.048578113312296 12.519873534273477 2.4647713475282407 0 0 0
166 56 1 -1.0484 32.64670744789623 12.516406204784559 5.3821670623568 0 0 0
3083 1028 2 0.5242 35.07983619781022 6.860320681431227 6.282249092356895 0 0 0
748 250 1 -1.0484 2.430273794596074 13.134763798286789 5.216438594217953 0 0 0
750 250 2 0.5242 1.688724364919711 13.119391453265404 4.464145774680482 0 0 0
749 250 2 0.5242 2.1355176205011963 13.970687334709545 5.712725381422078 0 0 0
296 99 2 0.5242 4.768718642034767 12.959990169794178 2.7970024623714305 0 0 0
1357 453 1 -1.0484 4.449450395728874 14.310513168408393 3.8192172876695025 0 0 0
1358 453 2 0.5242 3.835558999151527 15.050180877312275 3.4522016845513956 0 0 0
1359 453 2 0.5242 3.80275498427445 13.862000516573131 4.457525016550042 0 0 0
1189 397 1 -1.0484 3.0408663099388322 16.49234250059859 2.476813182904209 1 1 0
1190 397 2 0.5242 3.2356677673954253 16.677377984784577 1.5398745566122556 1 1 0
1191 397 2 0.5242 3.6595083561175206 17.177533498163434 3.001963845895151 1 1 0
827 276 2 0.5242 1.3956116290378788 16.957969627309147 2.552687598115646 1 0 0
462 154 2 0.5242 4.80046311918335 17.484053575197084 5.555458876945283 0 0 0
460 154 1 -1.0484 4.874387924370851 17.033241750256053 6.43738041697032 0 0 0
1926 642 2 0.5242 6.2291925174551945 16.447155954051144 6.309320680113932 1 0 0
3131 1044 2 0.5242 3.4565725869302764 16.10774740981575 6.43191055242551 0 0 0
826 276 1 -1.0484 35.85279765848003 16.888869734769642 2.358522940074918 0 0 0
828 276 2 0.5242 35.793593641400946 17.072659975382273 1.396192947696441 0 0 0
2269 757 1 -1.0484 4.32277533415486 18.116510363586038 4.058097065346775 1 0 0
3130 1044 1 -1.0484 2.69663157885498 15.504378401992367 6.614773463594306 0 0 0
300 100 2 0.5242 0.9946041885716713 18.463515939572936 4.513039595250595 0 0 -1
1700 567 2 0.5242 6.114005286698171 15.205046323000468 3.7135856227511654 0 0 1
299 100 2 0.5242 36.01854652491323 18.430464232691186 3.036131574276799 -1 0 -1
298 100 1 -1.0484 36.228318500048886 19.04672888665151 3.7640288563557007 -1 0 -1
2270 757 2 0.5242 5.202724434848975 18.425997674147403 3.53237143762535 1 0 0
3901 1301 1 -1.0484 8.560774124907052 12.921358971353209 5.207785040407275 0 0 0
2423 808 2 0.5242 8.717920883706226 15.20975123282241 3.403655582261423 0 0 0
2422 808 1 -1.0484 9.666451480474558 14.871727541263258 3.6038439164708276 0 0 0
1701 567 2 0.5242 7.296119534638231 15.863551915779546 4.439807832302881 0 0 1
1699 567 1 -1.0484 6.998850713063215 15.61845916590045 3.523015909302616 0 0 1
3108 1036 2 0.5242 10.46017409460238 16.35457325592586 3.059094976042994 0 0 0
3106 1036 1 -1.0484 10.976447454986172 17.084063621185756 2.630528645819877 0 0 0
3107 1036 2 0.5242 10.87125641081514 17.767914960968238 3.343838108222686 0 0 0
2424 808 2 0.5242 9.408090200795241 14.03566887906731 4.1350981729838185 0 0 0
4448 1483 2 0.5242 9.885300361957823 13.920998649880184 1.4643023540327378 0 0 1
1773 591 2 0.5242 7.591192254869989 17.910211838285264 5.519123526483352 0 0 0
1771 591 1 -1.0484 7.40855714482748 18.79525533451006 5.02594924221309 0 0 0
1772 591 2 0.5242 8.314690933004918 18.999833231638345 4.841379485169003 0 0 0
1924 642 1 -1.0484 7.301028605863678 16.26060576912339 6.2937391594547 1 0 0
3687 1229 2 0.5242 6.155093189530288 14.312117991767016 1.5395641770171853 0 0 1
2598 866 2 0.5242 9.55040405222053 16.955851449377633 1.611119263576665 0 -1 1
4122 1374 2 0.5242 7.550813858834526 13.524125460138032 6.7263655967253575 0 0 1
1925 642 2 0.5242 7.371862951904381 15.389306908198389 6.785506595957415 1 0 0
1720 574 1 -1.0484 17.382348945037627 12.90015330714182 4.540084283315281 0 0 0
3999 1333 2 0.5242 14.592161413505018 12.610197026979328 2.7996485122157533 0 1 0
1721 574 2 0.5242 16.779318415343255 12.702887896892891 3.7506035921211653 0 0 0
3997 1333 1 -1.0484 15.528904460638362 12.766526758820238 2.621184510134677 0 1 0
4197 1399 2 0.5242 14.710495208684573 16.1485724154251 1.6131546720618026 0 0 1
4195 1399 1 -1.0484 15.293800563280834 15.52208810892169 2.136098476891588 0 0 1
4196 1399 2 0.5242 15.675795949186897 16.086633903206803 2.8693095207306065 0 0 1
3538 1180 1 -1.0484 16.63541392974017 17.255401886334802 4.002350118917967 0 0 1
3539 1180 2 0.5242 15.817422241232247 17.645740953692005 4.417793571736947 0 0 1
3540 1180 2 0.5242 16.99438845740981 16.490914213593555 4.710333547385843 0 0 1
2274 758 2 0.5242 17.664607432943196 18.461727270080793 3.600476793072227 -1 0 0
3998 1333 2 0.5242 15.462384857263189 13.760691084085636 2.3735490841574673 0 1 0
3173 1058 2 0.5242 17.773619295257216 14.883652785802468 1.6353007718280785 0 0 1
1341 447 2 0.5242 17.377393705576026 14.268734843710291 5.195888138600328 0 0 1
1025 342 2 0.5242 13.628654732369558 18.086788541437116 1.846696840441181 0 0 1
1026 342 2 0.5242 12.504810525670031 17.127601733532806 1.5069732931111721 0 0 1
857 286 2 0.5242 14.811434599093642 14.352646270052697 5.3757848599142894 0 0 1
1024 342 1 -1.0484 13.468271875095956 17.303218811536254 1.2128578582325338 0 0 1
1339 447 1 -1.0484 17.49518579321325 15.30280542629253 5.573316286968957 0 0 1
858 286 2 0.5242 15.676178566482145 15.448501343925633 6.033615843767016 0 0 1
2273 758 2 0.5242 18.307197136435782 19.215656978969953 2.333097449445738 -1 0 0
2272 758 1 -1.0484 18.328566376213423 19.224166815358533 3.381817094452187 -1 0 0
856 286 1 -1.0484 14.700873126458763 15.243398265410741 5.784482341123298 0 0 1
3172 1058 1 -1.0484 18.166351686346548 15.228934528343958 0.7734772425966301 0 0 1
4453 1485 1 -1.0484 17.852228205127368 18.684928918530225 0.9123523316520608 0 0 0
3200 1067 2 0.5242 22.983995267457914 13.487594375842331 5.938084553049676 0 0 0
3199 1067 1 -1.0484 22.109505984070367 13.895895362881193 6.250015605435583 0 0 0
3099 1033 2 0.5242 19.89279100859773 14.387641753159825 4.245871934102839 0 0 0
3098 1033 2 0.5242 21.451846143350156 14.148109223014414 4.302986160887674 0 0 0
3097 1033 1 -1.0484 20.66461643593805 14.126515943945213 3.699135506232119 0 0 0
4355 1452 2 0.5242 20.685587841704333 14.909882036722816 2.141352982898395 0 0 0
4356 1452 2 0.5242 21.259445876426422 15.59550300503949 0.7654823399243549 0 0 0
4354 1452 1 -1.0484 20.533385367059143 15.758119746740698 1.4761404698466563 0 0 0
2900 967 2 0.5242 21.303753884484482 17.24564966817978 1.558064700878428 0 0 0
4394 1465 2 0.5242 23.863410566132305 13.171000556792073 1.0757481840445466 -1 0 1
3174 1058 2 0.5242 19.128923747808024 15.548597086677715 1.0066259354743505 0 0 1
2899 967 1 -1.0484 21.807400592349047 18.115000795607244 1.4287016687846794 0 0 0
4393 1465 1 -1.0484 23.55225711094294 13.690659238953522 35.790031310012296 -1 0 0
4395 1465 2 0.5242 24.020060938497842 14.548188167347242 35.883912188565574 -1 0 0
3987 1329 2 0.5242 25.430573715549077 12.780184035913551 5.848625381234493 0 0 0
3269 1090 2 0.5242 27.783196283167783 13.415262479763276 5.122343080860624 0 0 0
3293 1098 2 0.5242 25.88340530176604 12.3212715443808 1.8850885180904198 0 0 0
3076 1026 1 -1.0484 28.809136107729866 13.491496250378297 3.222751872511584 0 0 0
3078 1026 2 0.5242 28.139872323434204 13.048011409108499 2.6311746183039157 0 0 0
3268 1090 1 -1.0484 27.38709194052585 13.502738077900142 6.048784477895665 0 0 0
3292 1098 1 -1.0484 26.894695691467255 12.460867143622831 1.85877710764246 0 0 0
4491 1497 2 0.5242 24.628232484993124 16.560186916646288 36.147336031713955 0 0 -1
1601 534 2 0.5242 29.28276532231208 14.97213617969049 3.165893071523919 0 1 1
1000 334 1 -1.0484 27.802787989007612 17.574117907647555 4.721337841222965 0 0 1
1001 334 2 0.5242 28.26480941223989 16.895655128227016 4.205230523444271 0 0 1
3378 1126 2 0.5242 29.174942025599577 16.55274443607559 1.4345528277388642 -1 0 1
1600 534 1 -1.0484 29.423892531893383 16.026751087253164 3.0810801079351835 0 1 1
3376 1126 1 -1.0484 29.17962160578017 16.697535156489312 35.959007913429524 -1 0 0
1002 334 2 0.5242 27.581351930659622 17.072434089199703 5.49961482385801 0 0 1
1602 534 2 0.5242 30.41318042650231 16.176698303254675 3.289112123328318 0 1 1
2061 687 2 0.5242 27.88357960541445 19.158725087411362 4.647957505180683 0 0 1
678 226 2 0.5242 29.02095415854067 18.347481778235455 35.646873063983264 0 0 0
3194 1065 2 0.5242 27.33785648980987 15.233928566476713 6.673998433356276 -1 0 0
167 56 2 0.5242 33.07209029352123 13.026990619354105 4.619472196628925 0 0 0
2531 844 2 0.5242 31.523239321765566 13.170133687594616 1.9960499302535044 0 0 0
3402 1134 2 0.5242 35.005687941906416 15.764500528845067 3.1513507134889367 0 0 0
3401 1134 2 0.5242 34.939259460514705 14.252317864690504 3.379701046671332 0 0 0
505 169 1 -1.0484 31.92688467780532 16.686724691303517 3.966739791013565 0 0 0
3400 1134 1 -1.0484 34.39012527582092 15.093495319699123 3.598295736672199 0 0 0
332 111 2 0.5242 32.44667091704152 19.639967525467164 4.361466049846952 -1 0 0
507 169 2 0.5242 32.177310991854476 17.70556121102461 4.222545395550641 0 0 0
506 169 2 0.5242 32.75686638873525 16.331171141997267 3.7109250934052613 0 0 0
3071 1024 2 0.5242 33.15057359925876 14.84825264468829 2.244546809200127 -1 0 1
3070 1024 1 -1.0484 32.6087980997968 14.50505713167138 1.4544747448274182 -1 0 1
331 111 1 -1.0484 32.54436993965059 18.975552160197594 5.118839121091832 -1 0 0
1767 589 2 0.5242 33.71476151843643 18.462654435506206 6.748489132924451 0 1 0
3058 1020 1 -1.0484 6.59744180187936 18.45433818926297 2.508349065708628 0 0 0
2271 757 2 0.5242 3.899440085979124 19.050463233890813 4.258564180482583 1 0 0
3827 1276 2 0.5242 3.321211994212384 20.4009440223996 5.784890797970508 1 0 1
3826 1276 1 -1.0484 3.4822310176556894 20.639194642710013 4.870839794416647 1 0 1